ITEM: TIMESTEP
0
ITEM: NUMBER OF ATOMS
1024
ITEM: BOX BOUNDS pp pp pp
0.0000000000000000e+00 3.7712361663282536e+01
0.0000000000000000e+00 3.7712361663282536e+01
-5.0000000000000000e-01 5.0000000000000000e-01
ITEM: ATOMS id type xs ys zs
1 1 0 0 0.5
2 1 0 0.03125 0.5
33 1 0.03125 0 0.5
34 1 0.03125 0.03125 0.5
65 1 0.0625 0 0.5
66 1 0.0625 0.03125 0.5
97 1 0.09375 0 0.5
98 1 0.09375 0.03125 0.5
129 1 0.125 0 0.5
130 1 0.125 0.03125 0.5
161 1 0.15625 0 0.5
162 1 0.15625 0.03125 0.5
193 1 0.1875 0 0.5
194 1 0.1875 0.03125 0.5
225 1 0.21875 0 0.5
226 1 0.21875 0.03125 0.5
257 1 0.25 0 0.5
258 1 0.25 0.03125 0.5
289 1 0.28125 0 0.5
290 1 0.28125 0.03125 0.5
321 1 0.3125 0 0.5
322 1 0.3125 0.03125 0.5
353 1 0.34375 0 0.5
354 1 0.34375 0.03125 0.5
385 1 0.375 0 0.5
386 1 0.375 0.03125 0.5
417 1 0.40625 0 0.5
418 1 0.40625 0.03125 0.5
449 1 0.4375 0 0.5
450 1 0.4375 0.03125 0.5
481 1 0.46875 0 0.5
482 1 0.46875 0.03125 0.5
3 1 0 0.0625 0.5
35 1 0.03125 0.0625 0.5
67 1 0.0625 0.0625 0.5
99 1 0.09375 0.0625 0.5
131 1 0.125 0.0625 0.5
163 1 0.15625 0.0625 0.5
195 1 0.1875 0.0625 0.5
227 1 0.21875 0.0625 0.5
259 1 0.25 0.0625 0.5
291 1 0.28125 0.0625 0.5
323 1 0.3125 0.0625 0.5
355 1 0.34375 0.0625 0.5
387 1 0.375 0.0625 0.5
419 1 0.40625 0.0625 0.5
451 1 0.4375 0.0625 0.5
483 1 0.46875 0.0625 0.5
4 1 0 0.09375 0.5
36 1 0.03125 0.09375 0.5
68 1 0.0625 0.09375 0.5
100 1 0.09375 0.09375 0.5
132 1 0.125 0.09375 0.5
164 1 0.15625 0.09375 0.5
196 1 0.1875 0.09375 0.5
228 1 0.21875 0.09375 0.5
260 1 0.25 0.09375 0.5
292 1 0.28125 0.09375 0.5
324 1 0.3125 0.09375 0.5
356 1 0.34375 0.09375 0.5
388 1 0.375 0.09375 0.5
420 1 0.40625 0.09375 0.5
452 1 0.4375 0.09375 0.5
484 1 0.46875 0.09375 0.5
5 1 0 0.125 0.5
37 1 0.03125 0.125 0.5
69 1 0.0625 0.125 0.5
101 1 0.09375 0.125 0.5
133 1 0.125 0.125 0.5
165 1 0.15625 0.125 0.5
197 1 0.1875 0.125 0.5
229 1 0.21875 0.125 0.5
261 1 0.25 0.125 0.5
293 1 0.28125 0.125 0.5
325 1 0.3125 0.125 0.5
357 1 0.34375 0.125 0.5
389 1 0.375 0.125 0.5
421 1 0.40625 0.125 0.5
453 1 0.4375 0.125 0.5
485 1 0.46875 0.125 0.5
6 1 0 0.15625 0.5
7 1 0 0.1875 0.5
38 1 0.03125 0.15625 0.5
39 1 0.03125 0.1875 0.5
70 1 0.0625 0.15625 0.5
71 1 0.0625 0.1875 0.5
102 1 0.09375 0.15625 0.5
103 1 0.09375 0.1875 0.5
134 1 0.125 0.15625 0.5
135 1 0.125 0.1875 0.5
166 1 0.15625 0.15625 0.5
167 1 0.15625 0.1875 0.5
198 1 0.1875 0.15625 0.5
199 1 0.1875 0.1875 0.5
230 1 0.21875 0.15625 0.5
231 1 0.21875 0.1875 0.5
262 1 0.25 0.15625 0.5
263 1 0.25 0.1875 0.5
294 1 0.28125 0.15625 0.5
295 1 0.28125 0.1875 0.5
326 1 0.3125 0.15625 0.5
327 1 0.3125 0.1875 0.5
358 1 0.34375 0.15625 0.5
359 1 0.34375 0.1875 0.5
390 1 0.375 0.15625 0.5
391 1 0.375 0.1875 0.5
422 1 0.40625 0.15625 0.5
423 1 0.40625 0.1875 0.5
454 1 0.4375 0.15625 0.5
455 1 0.4375 0.1875 0.5
486 1 0.46875 0.15625 0.5
487 1 0.46875 0.1875 0.5
8 1 0 0.21875 0.5
40 1 0.03125 0.21875 0.5
72 1 0.0625 0.21875 0.5
104 1 0.09375 0.21875 0.5
136 1 0.125 0.21875 0.5
168 1 0.15625 0.21875 0.5
200 1 0.1875 0.21875 0.5
232 1 0.21875 0.21875 0.5
264 1 0.25 0.21875 0.5
296 1 0.28125 0.21875 0.5
328 1 0.3125 0.21875 0.5
360 1 0.34375 0.21875 0.5
392 1 0.375 0.21875 0.5
424 1 0.40625 0.21875 0.5
456 1 0.4375 0.21875 0.5
488 1 0.46875 0.21875 0.5
9 1 0 0.25 0.5
41 1 0.03125 0.25 0.5
73 1 0.0625 0.25 0.5
105 1 0.09375 0.25 0.5
137 1 0.125 0.25 0.5
169 1 0.15625 0.25 0.5
201 1 0.1875 0.25 0.5
233 1 0.21875 0.25 0.5
265 1 0.25 0.25 0.5
297 1 0.28125 0.25 0.5
329 1 0.3125 0.25 0.5
361 1 0.34375 0.25 0.5
393 1 0.375 0.25 0.5
425 1 0.40625 0.25 0.5
457 1 0.4375 0.25 0.5
489 1 0.46875 0.25 0.5
10 1 0 0.28125 0.5
42 1 0.03125 0.28125 0.5
74 1 0.0625 0.28125 0.5
106 1 0.09375 0.28125 0.5
138 1 0.125 0.28125 0.5
170 1 0.15625 0.28125 0.5
202 1 0.1875 0.28125 0.5
234 1 0.21875 0.28125 0.5
266 1 0.25 0.28125 0.5
298 1 0.28125 0.28125 0.5
330 1 0.3125 0.28125 0.5
362 1 0.34375 0.28125 0.5
394 1 0.375 0.28125 0.5
426 1 0.40625 0.28125 0.5
458 1 0.4375 0.28125 0.5
490 1 0.46875 0.28125 0.5
11 1 0 0.3125 0.5
12 1 0 0.34375 0.5
43 1 0.03125 0.3125 0.5
44 1 0.03125 0.34375 0.5
75 1 0.0625 0.3125 0.5
76 1 0.0625 0.34375 0.5
107 1 0.09375 0.3125 0.5
108 1 0.09375 0.34375 0.5
139 1 0.125 0.3125 0.5
140 1 0.125 0.34375 0.5
171 1 0.15625 0.3125 0.5
172 1 0.15625 0.34375 0.5
203 1 0.1875 0.3125 0.5
204 1 0.1875 0.34375 0.5
235 1 0.21875 0.3125 0.5
236 1 0.21875 0.34375 0.5
267 1 0.25 0.3125 0.5
268 1 0.25 0.34375 0.5
299 1 0.28125 0.3125 0.5
300 1 0.28125 0.34375 0.5
331 1 0.3125 0.3125 0.5
332 1 0.3125 0.34375 0.5
363 1 0.34375 0.3125 0.5
364 1 0.34375 0.34375 0.5
395 1 0.375 0.3125 0.5
396 1 0.375 0.34375 0.5
427 1 0.40625 0.3125 0.5
428 1 0.40625 0.34375 0.5
459 1 0.4375 0.3125 0.5
460 1 0.4375 0.34375 0.5
491 1 0.46875 0.3125 0.5
492 1 0.46875 0.34375 0.5
13 1 0 0.375 0.5
45 1 0.03125 0.375 0.5
77 1 0.0625 0.375 0.5
109 1 0.09375 0.375 0.5
141 1 0.125 0.375 0.5
173 1 0.15625 0.375 0.5
205 1 0.1875 0.375 0.5
237 1 0.21875 0.375 0.5
269 1 0.25 0.375 0.5
301 1 0.28125 0.375 0.5
333 1 0.3125 0.375 0.5
365 1 0.34375 0.375 0.5
397 1 0.375 0.375 0.5
429 1 0.40625 0.375 0.5
461 1 0.4375 0.375 0.5
493 1 0.46875 0.375 0.5
14 1 0 0.40625 0.5
46 1 0.03125 0.40625 0.5
78 1 0.0625 0.40625 0.5
110 1 0.09375 0.40625 0.5
142 1 0.125 0.40625 0.5
174 1 0.15625 0.40625 0.5
206 1 0.1875 0.40625 0.5
238 1 0.21875 0.40625 0.5
270 1 0.25 0.40625 0.5
302 1 0.28125 0.40625 0.5
334 1 0.3125 0.40625 0.5
366 1 0.34375 0.40625 0.5
398 1 0.375 0.40625 0.5
430 1 0.40625 0.40625 0.5
462 1 0.4375 0.40625 0.5
494 1 0.46875 0.40625 0.5
15 1 0 0.4375 0.5
47 1 0.03125 0.4375 0.5
79 1 0.0625 0.4375 0.5
111 1 0.09375 0.4375 0.5
143 1 0.125 0.4375 0.5
175 1 0.15625 0.4375 0.5
207 1 0.1875 0.4375 0.5
239 1 0.21875 0.4375 0.5
271 1 0.25 0.4375 0.5
303 1 0.28125 0.4375 0.5
335 1 0.3125 0.4375 0.5
367 1 0.34375 0.4375 0.5
399 1 0.375 0.4375 0.5
431 1 0.40625 0.4375 0.5
463 1 0.4375 0.4375 0.5
495 1 0.46875 0.4375 0.5
16 1 0 0.46875 0.5
48 1 0.03125 0.46875 0.5
80 1 0.0625 0.46875 0.5
112 1 0.09375 0.46875 0.5
144 1 0.125 0.46875 0.5
176 1 0.15625 0.46875 0.5
208 1 0.1875 0.46875 0.5
240 1 0.21875 0.46875 0.5
272 1 0.25 0.46875 0.5
304 1 0.28125 0.46875 0.5
336 1 0.3125 0.46875 0.5
368 1 0.34375 0.46875 0.5
400 1 0.375 0.46875 0.5
432 1 0.40625 0.46875 0.5
464 1 0.4375 0.46875 0.5
496 1 0.46875 0.46875 0.5
17 1 0 0.5 0.5
18 1 0 0.53125 0.5
49 1 0.03125 0.5 0.5
50 1 0.03125 0.53125 0.5
81 1 0.0625 0.5 0.5
82 1 0.0625 0.53125 0.5
113 1 0.09375 0.5 0.5
114 1 0.09375 0.53125 0.5
145 1 0.125 0.5 0.5
146 1 0.125 0.53125 0.5
177 1 0.15625 0.5 0.5
178 1 0.15625 0.53125 0.5
209 1 0.1875 0.5 0.5
210 1 0.1875 0.53125 0.5
241 1 0.21875 0.5 0.5
242 1 0.21875 0.53125 0.5
273 1 0.25 0.5 0.5
274 1 0.25 0.53125 0.5
305 1 0.28125 0.5 0.5
306 1 0.28125 0.53125 0.5
337 1 0.3125 0.5 0.5
338 1 0.3125 0.53125 0.5
369 1 0.34375 0.5 0.5
370 1 0.34375 0.53125 0.5
401 1 0.375 0.5 0.5
402 1 0.375 0.53125 0.5
433 1 0.40625 0.5 0.5
434 1 0.40625 0.53125 0.5
465 1 0.4375 0.5 0.5
466 1 0.4375 0.53125 0.5
497 1 0.46875 0.5 0.5
498 1 0.46875 0.53125 0.5
19 1 0 0.5625 0.5
51 1 0.03125 0.5625 0.5
83 1 0.0625 0.5625 0.5
115 1 0.09375 0.5625 0.5
147 1 0.125 0.5625 0.5
179 1 0.15625 0.5625 0.5
211 1 0.1875 0.5625 0.5
243 1 0.21875 0.5625 0.5
275 1 0.25 0.5625 0.5
307 1 0.28125 0.5625 0.5
339 1 0.3125 0.5625 0.5
371 1 0.34375 0.5625 0.5
403 1 0.375 0.5625 0.5
435 1 0.40625 0.5625 0.5
467 1 0.4375 0.5625 0.5
499 1 0.46875 0.5625 0.5
20 1 0 0.59375 0.5
52 1 0.03125 0.59375 0.5
84 1 0.0625 0.59375 0.5
116 1 0.09375 0.59375 0.5
148 1 0.125 0.59375 0.5
180 1 0.15625 0.59375 0.5
212 1 0.1875 0.59375 0.5
244 1 0.21875 0.59375 0.5
276 1 0.25 0.59375 0.5
308 1 0.28125 0.59375 0.5
340 1 0.3125 0.59375 0.5
372 1 0.34375 0.59375 0.5
404 1 0.375 0.59375 0.5
436 1 0.40625 0.59375 0.5
468 1 0.4375 0.59375 0.5
500 1 0.46875 0.59375 0.5
21 1 0 0.625 0.5
53 1 0.03125 0.625 0.5
85 1 0.0625 0.625 0.5
117 1 0.09375 0.625 0.5
149 1 0.125 0.625 0.5
181 1 0.15625 0.625 0.5
213 1 0.1875 0.625 0.5
245 1 0.21875 0.625 0.5
277 1 0.25 0.625 0.5
309 1 0.28125 0.625 0.5
341 1 0.3125 0.625 0.5
373 1 0.34375 0.625 0.5
405 1 0.375 0.625 0.5
437 1 0.40625 0.625 0.5
469 1 0.4375 0.625 0.5
501 1 0.46875 0.625 0.5
22 1 0 0.65625 0.5
23 1 0 0.6875 0.5
54 1 0.03125 0.65625 0.5
55 1 0.03125 0.6875 0.5
86 1 0.0625 0.65625 0.5
87 1 0.0625 0.6875 0.5
118 1 0.09375 0.65625 0.5
119 1 0.09375 0.6875 0.5
150 1 0.125 0.65625 0.5
151 1 0.125 0.6875 0.5
182 1 0.15625 0.65625 0.5
183 1 0.15625 0.6875 0.5
214 1 0.1875 0.65625 0.5
215 1 0.1875 0.6875 0.5
246 1 0.21875 0.65625 0.5
247 1 0.21875 0.6875 0.5
278 1 0.25 0.65625 0.5
279 1 0.25 0.6875 0.5
310 1 0.28125 0.65625 0.5
311 1 0.28125 0.6875 0.5
342 1 0.3125 0.65625 0.5
343 1 0.3125 0.6875 0.5
374 1 0.34375 0.65625 0.5
375 1 0.34375 0.6875 0.5
406 1 0.375 0.65625 0.5
407 1 0.375 0.6875 0.5
438 1 0.40625 0.65625 0.5
439 1 0.40625 0.6875 0.5
470 1 0.4375 0.65625 0.5
471 1 0.4375 0.6875 0.5
502 1 0.46875 0.65625 0.5
503 1 0.46875 0.6875 0.5
24 1 0 0.71875 0.5
56 1 0.03125 0.71875 0.5
88 1 0.0625 0.71875 0.5
120 1 0.09375 0.71875 0.5
152 1 0.125 0.71875 0.5
184 1 0.15625 0.71875 0.5
216 1 0.1875 0.71875 0.5
248 1 0.21875 0.71875 0.5
280 1 0.25 0.71875 0.5
312 1 0.28125 0.71875 0.5
344 1 0.3125 0.71875 0.5
376 1 0.34375 0.71875 0.5
408 1 0.375 0.71875 0.5
440 1 0.40625 0.71875 0.5
472 1 0.4375 0.71875 0.5
504 1 0.46875 0.71875 0.5
25 1 0 0.75 0.5
57 1 0.03125 0.75 0.5
89 1 0.0625 0.75 0.5
121 1 0.09375 0.75 0.5
153 1 0.125 0.75 0.5
185 1 0.15625 0.75 0.5
217 1 0.1875 0.75 0.5
249 1 0.21875 0.75 0.5
281 1 0.25 0.75 0.5
313 1 0.28125 0.75 0.5
345 1 0.3125 0.75 0.5
377 1 0.34375 0.75 0.5
409 1 0.375 0.75 0.5
441 1 0.40625 0.75 0.5
473 1 0.4375 0.75 0.5
505 1 0.46875 0.75 0.5
26 1 0 0.78125 0.5
58 1 0.03125 0.78125 0.5
90 1 0.0625 0.78125 0.5
122 1 0.09375 0.78125 0.5
154 1 0.125 0.78125 0.5
186 1 0.15625 0.78125 0.5
218 1 0.1875 0.78125 0.5
250 1 0.21875 0.78125 0.5
282 1 0.25 0.78125 0.5
314 1 0.28125 0.78125 0.5
346 1 0.3125 0.78125 0.5
378 1 0.34375 0.78125 0.5
410 1 0.375 0.78125 0.5
442 1 0.40625 0.78125 0.5
474 1 0.4375 0.78125 0.5
506 1 0.46875 0.78125 0.5
27 1 0 0.8125 0.5
28 1 0 0.84375 0.5
59 1 0.03125 0.8125 0.5
60 1 0.03125 0.84375 0.5
91 1 0.0625 0.8125 0.5
92 1 0.0625 0.84375 0.5
123 1 0.09375 0.8125 0.5
124 1 0.09375 0.84375 0.5
155 1 0.125 0.8125 0.5
156 1 0.125 0.84375 0.5
187 1 0.15625 0.8125 0.5
188 1 0.15625 0.84375 0.5
219 1 0.1875 0.8125 0.5
220 1 0.1875 0.84375 0.5
251 1 0.21875 0.8125 0.5
252 1 0.21875 0.84375 0.5
283 1 0.25 0.8125 0.5
284 1 0.25 0.84375 0.5
315 1 0.28125 0.8125 0.5
316 1 0.28125 0.84375 0.5
347 1 0.3125 0.8125 0.5
348 1 0.3125 0.84375 0.5
379 1 0.34375 0.8125 0.5
380 1 0.34375 0.84375 0.5
411 1 0.375 0.8125 0.5
412 1 0.375 0.84375 0.5
443 1 0.40625 0.8125 0.5
444 1 0.40625 0.84375 0.5
475 1 0.4375 0.8125 0.5
476 1 0.4375 0.84375 0.5
507 1 0.46875 0.8125 0.5
508 1 0.46875 0.84375 0.5
29 1 0 0.875 0.5
61 1 0.03125 0.875 0.5
93 1 0.0625 0.875 0.5
125 1 0.09375 0.875 0.5
157 1 0.125 0.875 0.5
189 1 0.15625 0.875 0.5
221 1 0.1875 0.875 0.5
253 1 0.21875 0.875 0.5
285 1 0.25 0.875 0.5
317 1 0.28125 0.875 0.5
349 1 0.3125 0.875 0.5
381 1 0.34375 0.875 0.5
413 1 0.375 0.875 0.5
445 1 0.40625 0.875 0.5
477 1 0.4375 0.875 0.5
509 1 0.46875 0.875 0.5
30 1 0 0.90625 0.5
62 1 0.03125 0.90625 0.5
94 1 0.0625 0.90625 0.5
126 1 0.09375 0.90625 0.5
158 1 0.125 0.90625 0.5
190 1 0.15625 0.90625 0.5
222 1 0.1875 0.90625 0.5
254 1 0.21875 0.90625 0.5
286 1 0.25 0.90625 0.5
318 1 0.28125 0.90625 0.5
350 1 0.3125 0.90625 0.5
382 1 0.34375 0.90625 0.5
414 1 0.375 0.90625 0.5
446 1 0.40625 0.90625 0.5
478 1 0.4375 0.90625 0.5
510 1 0.46875 0.90625 0.5
31 1 0 0.9375 0.5
63 1 0.03125 0.9375 0.5
95 1 0.0625 0.9375 0.5
127 1 0.09375 0.9375 0.5
159 1 0.125 0.9375 0.5
191 1 0.15625 0.9375 0.5
223 1 0.1875 0.9375 0.5
255 1 0.21875 0.9375 0.5
287 1 0.25 0.9375 0.5
319 1 0.28125 0.9375 0.5
351 1 0.3125 0.9375 0.5
383 1 0.34375 0.9375 0.5
415 1 0.375 0.9375 0.5
447 1 0.40625 0.9375 0.5
479 1 0.4375 0.9375 0.5
511 1 0.46875 0.9375 0.5
32 1 0 0.96875 0.5
64 1 0.03125 0.96875 0.5
96 1 0.0625 0.96875 0.5
128 1 0.09375 0.96875 0.5
160 1 0.125 0.96875 0.5
192 1 0.15625 0.96875 0.5
224 1 0.1875 0.96875 0.5
256 1 0.21875 0.96875 0.5
288 1 0.25 0.96875 0.5
320 1 0.28125 0.96875 0.5
352 1 0.3125 0.96875 0.5
384 1 0.34375 0.96875 0.5
416 1 0.375 0.96875 0.5
448 1 0.40625 0.96875 0.5
480 1 0.4375 0.96875 0.5
512 1 0.46875 0.96875 0.5
513 1 0.5 0 0.5
514 1 0.5 0.03125 0.5
545 1 0.53125 0 0.5
546 1 0.53125 0.03125 0.5
577 1 0.5625 0 0.5
578 1 0.5625 0.03125 0.5
609 1 0.59375 0 0.5
610 1 0.59375 0.03125 0.5
641 1 0.625 0 0.5
642 1 0.625 0.03125 0.5
673 1 0.65625 0 0.5
674 1 0.65625 0.03125 0.5
705 1 0.6875 0 0.5
706 1 0.6875 0.03125 0.5
737 1 0.71875 0 0.5
738 1 0.71875 0.03125 0.5
769 1 0.75 0 0.5
770 1 0.75 0.03125 0.5
801 1 0.78125 0 0.5
802 1 0.78125 0.03125 0.5
833 1 0.8125 0 0.5
834 1 0.8125 0.03125 0.5
865 1 0.84375 0 0.5
866 1 0.84375 0.03125 0.5
897 1 0.875 0 0.5
898 1 0.875 0.03125 0.5
929 1 0.90625 0 0.5
930 1 0.90625 0.03125 0.5
961 1 0.9375 0 0.5
962 1 0.9375 0.03125 0.5
993 1 0.96875 0 0.5
994 1 0.96875 0.03125 0.5
515 1 0.5 0.0625 0.5
547 1 0.53125 0.0625 0.5
579 1 0.5625 0.0625 0.5
611 1 0.59375 0.0625 0.5
643 1 0.625 0.0625 0.5
675 1 0.65625 0.0625 0.5
707 1 0.6875 0.0625 0.5
739 1 0.71875 0.0625 0.5
771 1 0.75 0.0625 0.5
803 1 0.78125 0.0625 0.5
835 1 0.8125 0.0625 0.5
867 1 0.84375 0.0625 0.5
899 1 0.875 0.0625 0.5
931 1 0.90625 0.0625 0.5
963 1 0.9375 0.0625 0.5
995 1 0.96875 0.0625 0.5
516 1 0.5 0.09375 0.5
548 1 0.53125 0.09375 0.5
580 1 0.5625 0.09375 0.5
612 1 0.59375 0.09375 0.5
644 1 0.625 0.09375 0.5
676 1 0.65625 0.09375 0.5
708 1 0.6875 0.09375 0.5
740 1 0.71875 0.09375 0.5
772 1 0.75 0.09375 0.5
804 1 0.78125 0.09375 0.5
836 1 0.8125 0.09375 0.5
868 1 0.84375 0.09375 0.5
900 1 0.875 0.09375 0.5
932 1 0.90625 0.09375 0.5
964 1 0.9375 0.09375 0.5
996 1 0.96875 0.09375 0.5
517 1 0.5 0.125 0.5
549 1 0.53125 0.125 0.5
581 1 0.5625 0.125 0.5
613 1 0.59375 0.125 0.5
645 1 0.625 0.125 0.5
677 1 0.65625 0.125 0.5
709 1 0.6875 0.125 0.5
741 1 0.71875 0.125 0.5
773 1 0.75 0.125 0.5
805 1 0.78125 0.125 0.5
837 1 0.8125 0.125 0.5
869 1 0.84375 0.125 0.5
901 1 0.875 0.125 0.5
933 1 0.90625 0.125 0.5
965 1 0.9375 0.125 0.5
997 1 0.96875 0.125 0.5
518 1 0.5 0.15625 0.5
519 1 0.5 0.1875 0.5
550 1 0.53125 0.15625 0.5
551 1 0.53125 0.1875 0.5
582 1 0.5625 0.15625 0.5
583 1 0.5625 0.1875 0.5
614 1 0.59375 0.15625 0.5
615 1 0.59375 0.1875 0.5
646 1 0.625 0.15625 0.5
647 1 0.625 0.1875 0.5
678 1 0.65625 0.15625 0.5
679 1 0.65625 0.1875 0.5
710 1 0.6875 0.15625 0.5
711 1 0.6875 0.1875 0.5
742 1 0.71875 0.15625 0.5
743 1 0.71875 0.1875 0.5
774 1 0.75 0.15625 0.5
775 1 0.75 0.1875 0.5
806 1 0.78125 0.15625 0.5
807 1 0.78125 0.1875 0.5
838 1 0.8125 0.15625 0.5
839 1 0.8125 0.1875 0.5
870 1 0.84375 0.15625 0.5
871 1 0.84375 0.1875 0.5
902 1 0.875 0.15625 0.5
903 1 0.875 0.1875 0.5
934 1 0.90625 0.15625 0.5
935 1 0.90625 0.1875 0.5
966 1 0.9375 0.15625 0.5
967 1 0.9375 0.1875 0.5
998 1 0.96875 0.15625 0.5
999 1 0.96875 0.1875 0.5
520 1 0.5 0.21875 0.5
552 1 0.53125 0.21875 0.5
584 1 0.5625 0.21875 0.5
616 1 0.59375 0.21875 0.5
648 1 0.625 0.21875 0.5
680 1 0.65625 0.21875 0.5
712 1 0.6875 0.21875 0.5
744 1 0.71875 0.21875 0.5
776 1 0.75 0.21875 0.5
808 1 0.78125 0.21875 0.5
840 1 0.8125 0.21875 0.5
872 1 0.84375 0.21875 0.5
904 1 0.875 0.21875 0.5
936 1 0.90625 0.21875 0.5
968 1 0.9375 0.21875 0.5
1000 1 0.96875 0.21875 0.5
521 1 0.5 0.25 0.5
553 1 0.53125 0.25 0.5
585 1 0.5625 0.25 0.5
617 1 0.59375 0.25 0.5
649 1 0.625 0.25 0.5
681 1 0.65625 0.25 0.5
713 1 0.6875 0.25 0.5
745 1 0.71875 0.25 0.5
777 1 0.75 0.25 0.5
809 1 0.78125 0.25 0.5
841 1 0.8125 0.25 0.5
873 1 0.84375 0.25 0.5
905 1 0.875 0.25 0.5
937 1 0.90625 0.25 0.5
969 1 0.9375 0.25 0.5
1001 1 0.96875 0.25 0.5
522 1 0.5 0.28125 0.5
554 1 0.53125 0.28125 0.5
586 1 0.5625 0.28125 0.5
618 1 0.59375 0.28125 0.5
650 1 0.625 0.28125 0.5
682 1 0.65625 0.28125 0.5
714 1 0.6875 0.28125 0.5
746 1 0.71875 0.28125 0.5
778 1 0.75 0.28125 0.5
810 1 0.78125 0.28125 0.5
842 1 0.8125 0.28125 0.5
874 1 0.84375 0.28125 0.5
906 1 0.875 0.28125 0.5
938 1 0.90625 0.28125 0.5
970 1 0.9375 0.28125 0.5
1002 1 0.96875 0.28125 0.5
523 1 0.5 0.3125 0.5
524 1 0.5 0.34375 0.5
555 1 0.53125 0.3125 0.5
556 1 0.53125 0.34375 0.5
587 1 0.5625 0.3125 0.5
588 1 0.5625 0.34375 0.5
619 1 0.59375 0.3125 0.5
620 1 0.59375 0.34375 0.5
651 1 0.625 0.3125 0.5
652 1 0.625 0.34375 0.5
683 1 0.65625 0.3125 0.5
684 1 0.65625 0.34375 0.5
715 1 0.6875 0.3125 0.5
716 1 0.6875 0.34375 0.5
747 1 0.71875 0.3125 0.5
748 1 0.71875 0.34375 0.5
779 1 0.75 0.3125 0.5
780 1 0.75 0.34375 0.5
811 1 0.78125 0.3125 0.5
812 1 0.78125 0.34375 0.5
843 1 0.8125 0.3125 0.5
844 1 0.8125 0.34375 0.5
875 1 0.84375 0.3125 0.5
876 1 0.84375 0.34375 0.5
907 1 0.875 0.3125 0.5
908 1 0.875 0.34375 0.5
939 1 0.90625 0.3125 0.5
940 1 0.90625 0.34375 0.5
971 1 0.9375 0.3125 0.5
972 1 0.9375 0.34375 0.5
1003 1 0.96875 0.3125 0.5
1004 1 0.96875 0.34375 0.5
525 1 0.5 0.375 0.5
557 1 0.53125 0.375 0.5
589 1 0.5625 0.375 0.5
621 1 0.59375 0.375 0.5
653 1 0.625 0.375 0.5
685 1 0.65625 0.375 0.5
717 1 0.6875 0.375 0.5
749 1 0.71875 0.375 0.5
781 1 0.75 0.375 0.5
813 1 0.78125 0.375 0.5
845 1 0.8125 0.375 0.5
877 1 0.84375 0.375 0.5
909 1 0.875 0.375 0.5
941 1 0.90625 0.375 0.5
973 1 0.9375 0.375 0.5
1005 1 0.96875 0.375 0.5
526 1 0.5 0.40625 0.5
558 1 0.53125 0.40625 0.5
590 1 0.5625 0.40625 0.5
622 1 0.59375 0.40625 0.5
654 1 0.625 0.40625 0.5
686 1 0.65625 0.40625 0.5
718 1 0.6875 0.40625 0.5
750 1 0.71875 0.40625 0.5
782 1 0.75 0.40625 0.5
814 1 0.78125 0.40625 0.5
846 1 0.8125 0.40625 0.5
878 1 0.84375 0.40625 0.5
910 1 0.875 0.40625 0.5
942 1 0.90625 0.40625 0.5
974 1 0.9375 0.40625 0.5
1006 1 0.96875 0.40625 0.5
527 1 0.5 0.4375 0.5
559 1 0.53125 0.4375 0.5
591 1 0.5625 0.4375 0.5
623 1 0.59375 0.4375 0.5
655 1 0.625 0.4375 0.5
687 1 0.65625 0.4375 0.5
719 1 0.6875 0.4375 0.5
751 1 0.71875 0.4375 0.5
783 1 0.75 0.4375 0.5
815 1 0.78125 0.4375 0.5
847 1 0.8125 0.4375 0.5
879 1 0.84375 0.4375 0.5
911 1 0.875 0.4375 0.5
943 1 0.90625 0.4375 0.5
975 1 0.9375 0.4375 0.5
1007 1 0.96875 0.4375 0.5
528 1 0.5 0.46875 0.5
560 1 0.53125 0.46875 0.5
592 1 0.5625 0.46875 0.5
624 1 0.59375 0.46875 0.5
656 1 0.625 0.46875 0.5
688 1 0.65625 0.46875 0.5
720 1 0.6875 0.46875 0.5
752 1 0.71875 0.46875 0.5
784 1 0.75 0.46875 0.5
816 1 0.78125 0.46875 0.5
848 1 0.8125 0.46875 0.5
880 1 0.84375 0.46875 0.5
912 1 0.875 0.46875 0.5
944 1 0.90625 0.46875 0.5
976 1 0.9375 0.46875 0.5
1008 1 0.96875 0.46875 0.5
529 1 0.5 0.5 0.5
530 1 0.5 0.53125 0.5
561 1 0.53125 0.5 0.5
562 1 0.53125 0.53125 0.5
593 1 0.5625 0.5 0.5
594 1 0.5625 0.53125 0.5
625 1 0.59375 0.5 0.5
626 1 0.59375 0.53125 0.5
657 1 0.625 0.5 0.5
658 1 0.625 0.53125 0.5
689 1 0.65625 0.5 0.5
690 1 0.65625 0.53125 0.5
721 1 0.6875 0.5 0.5
722 1 0.6875 0.53125 0.5
753 1 0.71875 0.5 0.5
754 1 0.71875 0.53125 0.5
785 1 0.75 0.5 0.5
786 1 0.75 0.53125 0.5
817 1 0.78125 0.5 0.5
818 1 0.78125 0.53125 0.5
849 1 0.8125 0.5 0.5
850 1 0.8125 0.53125 0.5
881 1 0.84375 0.5 0.5
882 1 0.84375 0.53125 0.5
913 1 0.875 0.5 0.5
914 1 0.875 0.53125 0.5
945 1 0.90625 0.5 0.5
946 1 0.90625 0.53125 0.5
977 1 0.9375 0.5 0.5
978 1 0.9375 0.53125 0.5
1009 1 0.96875 0.5 0.5
1010 1 0.96875 0.53125 0.5
531 1 0.5 0.5625 0.5
563 1 0.53125 0.5625 0.5
595 1 0.5625 0.5625 0.5
627 1 0.59375 0.5625 0.5
659 1 0.625 0.5625 0.5
691 1 0.65625 0.5625 0.5
723 1 0.6875 0.5625 0.5
755 1 0.71875 0.5625 0.5
787 1 0.75 0.5625 0.5
819 1 0.78125 0.5625 0.5
851 1 0.8125 0.5625 0.5
883 1 0.84375 0.5625 0.5
915 1 0.875 0.5625 0.5
947 1 0.90625 0.5625 0.5
979 1 0.9375 0.5625 0.5
1011 1 0.96875 0.5625 0.5
532 1 0.5 0.59375 0.5
564 1 0.53125 0.59375 0.5
596 1 0.5625 0.59375 0.5
628 1 0.59375 0.59375 0.5
660 1 0.625 0.59375 0.5
692 1 0.65625 0.59375 0.5
724 1 0.6875 0.59375 0.5
756 1 0.71875 0.59375 0.5
788 1 0.75 0.59375 0.5
820 1 0.78125 0.59375 0.5
852 1 0.8125 0.59375 0.5
884 1 0.84375 0.59375 0.5
916 1 0.875 0.59375 0.5
948 1 0.90625 0.59375 0.5
980 1 0.9375 0.59375 0.5
1012 1 0.96875 0.59375 0.5
533 1 0.5 0.625 0.5
565 1 0.53125 0.625 0.5
597 1 0.5625 0.625 0.5
629 1 0.59375 0.625 0.5
661 1 0.625 0.625 0.5
693 1 0.65625 0.625 0.5
725 1 0.6875 0.625 0.5
757 1 0.71875 0.625 0.5
789 1 0.75 0.625 0.5
821 1 0.78125 0.625 0.5
853 1 0.8125 0.625 0.5
885 1 0.84375 0.625 0.5
917 1 0.875 0.625 0.5
949 1 0.90625 0.625 0.5
981 1 0.9375 0.625 0.5
1013 1 0.96875 0.625 0.5
534 1 0.5 0.65625 0.5
535 1 0.5 0.6875 0.5
566 1 0.53125 0.65625 0.5
567 1 0.53125 0.6875 0.5
598 1 0.5625 0.65625 0.5
599 1 0.5625 0.6875 0.5
630 1 0.59375 0.65625 0.5
631 1 0.59375 0.6875 0.5
662 1 0.625 0.65625 0.5
663 1 0.625 0.6875 0.5
694 1 0.65625 0.65625 0.5
695 1 0.65625 0.6875 0.5
726 1 0.6875 0.65625 0.5
727 1 0.6875 0.6875 0.5
758 1 0.71875 0.65625 0.5
759 1 0.71875 0.6875 0.5
790 1 0.75 0.65625 0.5
791 1 0.75 0.6875 0.5
822 1 0.78125 0.65625 0.5
823 1 0.78125 0.6875 0.5
854 1 0.8125 0.65625 0.5
855 1 0.8125 0.6875 0.5
886 1 0.84375 0.65625 0.5
887 1 0.84375 0.6875 0.5
918 1 0.875 0.65625 0.5
919 1 0.875 0.6875 0.5
950 1 0.90625 0.65625 0.5
951 1 0.90625 0.6875 0.5
982 1 0.9375 0.65625 0.5
983 1 0.9375 0.6875 0.5
1014 1 0.96875 0.65625 0.5
1015 1 0.96875 0.6875 0.5
536 1 0.5 0.71875 0.5
568 1 0.53125 0.71875 0.5
600 1 0.5625 0.71875 0.5
632 1 0.59375 0.71875 0.5
664 1 0.625 0.71875 0.5
696 1 0.65625 0.71875 0.5
728 1 0.6875 0.71875 0.5
760 1 0.71875 0.71875 0.5
792 1 0.75 0.71875 0.5
824 1 0.78125 0.71875 0.5
856 1 0.8125 0.71875 0.5
888 1 0.84375 0.71875 0.5
920 1 0.875 0.71875 0.5
952 1 0.90625 0.71875 0.5
984 1 0.9375 0.71875 0.5
1016 1 0.96875 0.71875 0.5
537 1 0.5 0.75 0.5
569 1 0.53125 0.75 0.5
601 1 0.5625 0.75 0.5
633 1 0.59375 0.75 0.5
665 1 0.625 0.75 0.5
697 1 0.65625 0.75 0.5
729 1 0.6875 0.75 0.5
761 1 0.71875 0.75 0.5
793 1 0.75 0.75 0.5
825 1 0.78125 0.75 0.5
857 1 0.8125 0.75 0.5
889 1 0.84375 0.75 0.5
921 1 0.875 0.75 0.5
953 1 0.90625 0.75 0.5
985 1 0.9375 0.75 0.5
1017 1 0.96875 0.75 0.5
538 1 0.5 0.78125 0.5
570 1 0.53125 0.78125 0.5
602 1 0.5625 0.78125 0.5
634 1 0.59375 0.78125 0.5
666 1 0.625 0.78125 0.5
698 1 0.65625 0.78125 0.5
730 1 0.6875 0.78125 0.5
762 1 0.71875 0.78125 0.5
794 1 0.75 0.78125 0.5
826 1 0.78125 0.78125 0.5
858 1 0.8125 0.78125 0.5
890 1 0.84375 0.78125 0.5
922 1 0.875 0.78125 0.5
954 1 0.90625 0.78125 0.5
986 1 0.9375 0.78125 0.5
1018 1 0.96875 0.78125 0.5
539 1 0.5 0.8125 0.5
540 1 0.5 0.84375 0.5
571 1 0.53125 0.8125 0.5
572 1 0.53125 0.84375 0.5
603 1 0.5625 0.8125 0.5
604 1 0.5625 0.84375 0.5
635 1 0.59375 0.8125 0.5
636 1 0.59375 0.84375 0.5
667 1 0.625 0.8125 0.5
668 1 0.625 0.84375 0.5
699 1 0.65625 0.8125 0.5
700 1 0.65625 0.84375 0.5
731 1 0.6875 0.8125 0.5
732 1 0.6875 0.84375 0.5
763 1 0.71875 0.8125 0.5
764 1 0.71875 0.84375 0.5
795 1 0.75 0.8125 0.5
796 1 0.75 0.84375 0.5
827 1 0.78125 0.8125 0.5
828 1 0.78125 0.84375 0.5
859 1 0.8125 0.8125 0.5
860 1 0.8125 0.84375 0.5
891 1 0.84375 0.8125 0.5
892 1 0.84375 0.84375 0.5
923 1 0.875 0.8125 0.5
924 1 0.875 0.84375 0.5
955 1 0.90625 0.8125 0.5
956 1 0.90625 0.84375 0.5
987 1 0.9375 0.8125 0.5
988 1 0.9375 0.84375 0.5
1019 1 0.96875 0.8125 0.5
1020 1 0.96875 0.84375 0.5
541 1 0.5 0.875 0.5
573 1 0.53125 0.875 0.5
605 1 0.5625 0.875 0.5
637 1 0.59375 0.875 0.5
669 1 0.625 0.875 0.5
701 1 0.65625 0.875 0.5
733 1 0.6875 0.875 0.5
765 1 0.71875 0.875 0.5
797 1 0.75 0.875 0.5
829 1 0.78125 0.875 0.5
861 1 0.8125 0.875 0.5
893 1 0.84375 0.875 0.5
925 1 0.875 0.875 0.5
957 1 0.90625 0.875 0.5
989 1 0.9375 0.875 0.5
1021 1 0.96875 0.875 0.5
542 1 0.5 0.90625 0.5
574 1 0.53125 0.90625 0.5
606 1 0.5625 0.90625 0.5
638 1 0.59375 0.90625 0.5
670 1 0.625 0.90625 0.5
702 1 0.65625 0.90625 0.5
734 1 0.6875 0.90625 0.5
766 1 0.71875 0.90625 0.5
798 1 0.75 0.90625 0.5
830 1 0.78125 0.90625 0.5
862 1 0.8125 0.90625 0.5
894 1 0.84375 0.90625 0.5
926 1 0.875 0.90625 0.5
958 1 0.90625 0.90625 0.5
990 1 0.9375 0.90625 0.5
1022 1 0.96875 0.90625 0.5
543 1 0.5 0.9375 0.5
575 1 0.53125 0.9375 0.5
607 1 0.5625 0.9375 0.5
639 1 0.59375 0.9375 0.5
671 1 0.625 0.9375 0.5
703 1 0.65625 0.9375 0.5
735 1 0.6875 0.9375 0.5
767 1 0.71875 0.9375 0.5
799 1 0.75 0.9375 0.5
831 1 0.78125 0.9375 0.5
863 1 0.8125 0.9375 0.5
895 1 0.84375 0.9375 0.5
927 1 0.875 0.9375 0.5
959 1 0.90625 0.9375 0.5
991 1 0.9375 0.9375 0.5
1023 1 0.96875 0.9375 0.5
544 1 0.5 0.96875 0.5
576 1 0.53125 0.96875 0.5
608 1 0.5625 0.96875 0.5
640 1 0.59375 0.96875 0.5
672 1 0.625 0.96875 0.5
704 1 0.65625 0.96875 0.5
736 1 0.6875 0.96875 0.5
768 1 0.71875 0.96875 0.5
800 1 0.75 0.96875 0.5
832 1 0.78125 0.96875 0.5
864 1 0.8125 0.96875 0.5
896 1 0.84375 0.96875 0.5
928 1 0.875 0.96875 0.5
960 1 0.90625 0.96875 0.5
992 1 0.9375 0.96875 0.5
1024 1 0.96875 0.96875 0.5
ITEM: TIMESTEP
40000
ITEM: NUMBER OF ATOMS
1024
ITEM: BOX BOUNDS pp pp pp
0.0000000000000000e+00 3.7712361663282536e+01
0.0000000000000000e+00 3.7712361663282536e+01
-5.0000000000000000e-01 5.0000000000000000e-01
ITEM: ATOMS id type xs ys zs
100 1 0.158302 0.144704 0.5
99 1 0.183212 0.151003 0.5
259 1 0.278049 0.145034 0.5
101 1 0.14051 0.164563 0.5
133 1 0.146988 0.190683 0.5
132 1 0.166412 0.170397 0.5
131 1 0.192654 0.175031 0.5
163 1 0.20862 0.154694 0.5
164 1 0.218684 0.179698 0.5
195 1 0.235477 0.159026 0.5
196 1 0.244016 0.184144 0.5
227 1 0.260395 0.163833 0.5
228 1 0.269821 0.189302 0.5
260 1 0.286929 0.169132 0.5
291 1 0.313478 0.173733 0.5
323 1 0.33977 0.177404 0.5
355 1 0.365915 0.181263 0.5
387 1 0.392259 0.188279 0.5
102 1 0.13002 0.210384 0.5
165 1 0.174651 0.195355 0.5
134 1 0.157042 0.214975 0.5
166 1 0.182733 0.220877 0.5
197 1 0.200795 0.199245 0.5
198 1 0.209209 0.223909 0.5
229 1 0.225776 0.203964 0.5
261 1 0.252739 0.209057 0.5
230 1 0.235401 0.228122 0.5
292 1 0.295456 0.193548 0.5
293 1 0.27867 0.213885 0.5
325 1 0.30477 0.217764 0.5
324 1 0.321611 0.197969 0.5
357 1 0.330711 0.222792 0.5
356 1 0.348639 0.202151 0.5
388 1 0.374065 0.206813 0.5
389 1 0.356283 0.227143 0.5
419 1 0.418428 0.192674 0.5
420 1 0.401038 0.212553 0.5
451 1 0.443964 0.196003 0.5
452 1 0.427777 0.217043 0.5
483 1 0.452754 0.220874 0.5
515 1 0.470961 0.200624 0.5
484 1 0.480117 0.225194 0.5
516 1 0.49625 0.204691 0.5
103 1 0.113959 0.231282 0.5
71 1 0.0959233 0.251829 0.5
135 1 0.140044 0.234913 0.5
104 1 0.122926 0.255516 0.5
136 1 0.148849 0.259425 0.5
167 1 0.166225 0.240162 0.5
168 1 0.174811 0.265422 0.5
199 1 0.191566 0.245326 0.5
231 1 0.217447 0.248531 0.5
262 1 0.261233 0.233166 0.5
263 1 0.243717 0.252891 0.5
295 1 0.269694 0.25854 0.5
294 1 0.287879 0.237459 0.5
327 1 0.295375 0.262505 0.5
326 1 0.313549 0.242412 0.5
358 1 0.340033 0.247247 0.5
359 1 0.321954 0.267611 0.5
390 1 0.366205 0.251846 0.5
421 1 0.409842 0.237944 0.5
422 1 0.391644 0.256919 0.5
454 1 0.418871 0.26245 0.5
453 1 0.436877 0.241195 0.5
486 1 0.445873 0.266176 0.5
485 1 0.462907 0.245805 0.5
517 1 0.490048 0.24931 0.5
39 1 0.0785005 0.271465 0.5
72 1 0.1065 0.276294 0.5
40 1 0.0889249 0.295245 0.5
73 1 0.11517 0.300361 0.5
105 1 0.132109 0.280499 0.5
106 1 0.1401 0.305306 0.5
137 1 0.157385 0.285733 0.5
169 1 0.183737 0.290112 0.5
200 1 0.200756 0.270121 0.5
232 1 0.227357 0.273472 0.5
201 1 0.208606 0.294913 0.5
264 1 0.252832 0.27741 0.5
233 1 0.23484 0.29838 0.5
265 1 0.260267 0.303268 0.5
296 1 0.278353 0.282787 0.5
297 1 0.285598 0.307386 0.5
328 1 0.304729 0.2883 0.5
360 1 0.330712 0.291503 0.5
391 1 0.348549 0.271946 0.5
423 1 0.374186 0.278083 0.5
392 1 0.357256 0.297149 0.5
424 1 0.384275 0.302348 0.5
455 1 0.401774 0.282227 0.5
487 1 0.427538 0.28811 0.5
519 1 0.453323 0.293365 0.5
518 1 0.470848 0.270971 0.5
520 1 0.478023 0.297837 0.5
41 1 0.0714179 0.315125 0.5
74 1 0.0978624 0.319892 0.5
42 1 0.0813919 0.338863 0.5
75 1 0.10564 0.344393 0.5
107 1 0.123685 0.325257 0.5
138 1 0.149984 0.330033 0.5
170 1 0.166216 0.309656 0.5
171 1 0.174998 0.335245 0.5
202 1 0.19212 0.315284 0.5
203 1 0.201012 0.340705 0.5
234 1 0.217697 0.319078 0.5
235 1 0.226713 0.344691 0.5
266 1 0.242829 0.323729 0.5
298 1 0.270054 0.327828 0.5
330 1 0.296154 0.331701 0.5
329 1 0.312904 0.312426 0.5
362 1 0.32163 0.337289 0.5
361 1 0.33883 0.316817 0.5
393 1 0.365188 0.321737 0.5
394 1 0.348034 0.341489 0.5
456 1 0.409405 0.307746 0.5
425 1 0.391784 0.327297 0.5
426 1 0.418816 0.333295 0.5
488 1 0.435526 0.312956 0.5
458 1 0.444559 0.339062 0.5
457 1 0.460292 0.318047 0.5
489 1 0.484679 0.324152 0.5
490 1 0.469202 0.344926 0.5
1005 1 0.00105028 0.371599 0.5
44 1 0.0424181 0.370894 0.5
43 1 0.0614459 0.355479 0.5
45 1 0.0672913 0.381164 0.5
76 1 0.0869093 0.363929 0.5
140 1 0.112293 0.370956 0.5
139 1 0.130666 0.35151 0.5
141 1 0.138461 0.37725 0.5
172 1 0.15778 0.355591 0.5
173 1 0.166427 0.380362 0.5
204 1 0.183843 0.361139 0.5
236 1 0.210382 0.365145 0.5
267 1 0.252456 0.348232 0.5
268 1 0.235606 0.369396 0.5
300 1 0.261431 0.373138 0.5
299 1 0.278505 0.353245 0.5
332 1 0.287339 0.377188 0.5
331 1 0.304485 0.356656 0.5
363 1 0.329988 0.361524 0.5
364 1 0.313493 0.381423 0.5
395 1 0.374137 0.346859 0.5
396 1 0.355903 0.366066 0.5
428 1 0.382978 0.371441 0.5
427 1 0.401477 0.352496 0.5
460 1 0.409086 0.377172 0.5
459 1 0.42719 0.358403 0.5
491 1 0.452123 0.366438 0.5
493 1 0.434482 0.384178 0.5
522 1 0.495135 0.348905 0.5
523 1 0.479094 0.369043 0.5
12 1 0.0215936 0.385554 0.5
14 1 0.0236973 0.411532 0.5
13 1 0.000738121 0.398854 0.5
46 1 0.0447779 0.397562 0.5
78 1 0.0697194 0.408966 0.5
77 1 0.0911409 0.390534 0.5
109 1 0.0946683 0.418504 0.5
108 1 0.116717 0.397233 0.5
174 1 0.177795 0.40638 0.5
205 1 0.193559 0.385298 0.5
237 1 0.219585 0.389692 0.5
206 1 0.203775 0.410504 0.5
238 1 0.230077 0.414781 0.5
269 1 0.245888 0.394817 0.5
270 1 0.255338 0.419499 0.5
301 1 0.271714 0.398485 0.5
333 1 0.297243 0.402019 0.5
365 1 0.339701 0.385859 0.5
366 1 0.32276 0.405679 0.5
397 1 0.36547 0.389489 0.5
398 1 0.34859 0.409646 0.5
430 1 0.373477 0.413535 0.5
429 1 0.39321 0.397075 0.5
461 1 0.417336 0.405878 0.5
492 1 0.462981 0.390167 0.5
524 1 0.490151 0.393731 0.5
525 1 0.476719 0.414794 0.5