Converted from xyz.tmp using xyz2lmp.py utility.

1024 atoms

1 atom types

0 37.712361663282536 xlo xhi
0 37.712361663282536 ylo yhi
0 1.0 zlo zhi
0.0 0.0 0.0 xy xz yz

Masses

1 1.0079

Atoms

1 1 0.6230232996220928 0.2744588773532547 0.5
2 1 0.017380873243373656 1.3544168417197944 0.5
3 1 1.5888632804719227 0.6370372132161686 0.5
4 1 3.4535434604405952 0.6182413721631886 0.5
5 1 5.0910556874581525 0.916195427956285 0.5
6 1 7.099314370751274 0.8340352768366576 0.5
7 1 8.023908341649973 0.5950897533380994 0.5
8 1 8.947898914762058 0.8080250609974916 0.5
9 1 11.280634757806062 0.8989005388975035 0.5
10 1 10.195197564413464 0.5293156233611683 0.5
11 1 12.502175864441446 0.6863008712569146 0.5
12 1 14.392998253515106 0.6350912553543432 0.5
13 1 15.349911718359238 0.8584955146114627 0.5
14 1 17.17043826529254 1.1902059053293632 0.5
15 1 18.57424321584657 1.2541019596954628 0.5
16 1 17.854766780034463 0.5604434066780417 0.5
17 1 0.15022229007866975 2.625896657669698 0.5
18 1 1.1892216126899515 1.4758204763862333 0.5
19 1 2.1983629272015626 1.7565248979545443 0.5
20 1 1.900246708253314 2.6669541058125135 0.5
21 1 2.8844639229416615 2.7097727212450047 0.5
22 1 3.328496811637483 1.8132970872024499 0.5
23 1 3.8856177592529897 2.6535737598943805 0.5
24 1 5.3930939920193826 2.178703473066493 0.5
25 1 4.505307286104048 1.8038727680227955 0.5
26 1 6.903210090102204 2.0345215719554317 0.5
27 1 9.813774738551023 2.2857801815370515 0.5
28 1 10.492672673213438 1.5181224324639375 0.5
29 1 11.355984056409302 1.8679234430717147 0.5
30 1 10.80278142317061 2.8396880359388463 0.5
31 1 12.158955660943912 2.1441023812404314 0.5
32 1 14.05551032899039 1.7152260906970838 0.5
33 1 13.417681156179293 2.3903263905400034 0.5
34 1 15.839644446918625 1.7581917843400614 0.5
35 1 15.059488821190298 2.4164459722279927 0.5
36 1 16.32153300425205 2.6363844654482564 0.5
37 1 17.44185413218318 2.1881617333716448 0.5
38 1 18.583709018624052 2.162969875780572 0.5
39 1 1.349702796511884 3.427261715597454 0.5
40 1 2.4618705118514166 3.6988020332815865 0.5
41 1 3.2090542197775345 4.345256023205077 0.5
42 1 4.049025422339993 3.704470201239578 0.5
43 1 5.753624169520363 3.0343328481915464 0.5
44 1 4.76129879707441 3.0531852577870215 0.5
45 1 5.218900593496681 3.9618721545361466 0.5
46 1 6.745383856541367 3.067678118374221 0.5
47 1 7.144342930577234 4.067504479555001 0.5
48 1 6.200930491208557 4.237021545231457 0.5
49 1 7.707614764380022 3.259585013170167 0.5
50 1 9.727601992150424 3.1681777909707027 0.5
51 1 9.765804614515329 4.316594628340982 0.5
52 1 11.567512692978653 3.895875521625402 0.5
53 1 12.944127030773455 3.130076991982288 0.5
54 1 12.806740897234116 4.225142151307522 0.5
55 1 14.136177070588152 3.0443567939216467 0.5
56 1 14.080702186581464 4.040728702774071 0.5
57 1 15.214411202903063 3.293469570124626 0.5
58 1 16.727129453940652 4.3239862512269855 0.5
59 1 17.57660040040609 3.2225552452529893 0.5
60 1 0.41687244582592514 4.464917346762673 0.5
61 1 0.33906053000607433 5.525954642159126 0.5
62 1 1.3814490625600353 4.725585190579282 0.5
63 1 1.321750394047059 5.627476319756683 0.5
64 1 2.2846412682148203 4.831934050469738 0.5
65 1 3.9072269424860506 5.410328541299503 0.5
66 1 5.7131210930939975 5.168630015399525 0.5
67 1 4.952274196537273 5.6773697742372065 0.5
68 1 6.9304761275847575 5.427261391686317 0.5
69 1 7.847678475597453 5.574151040364802 0.5
70 1 7.995624070402511 4.58586089061682 0.5
71 1 10.025906772906987 5.302169488049208 0.5
72 1 10.796973719474463 4.666904755831214 0.5
73 1 11.908771853669695 4.7681624468971275 0.5
74 1 12.662000853170438 5.605188314013684 0.5
75 1 13.636714552719637 4.8181313261009775 0.5
76 1 14.305279300286312 5.629361937839847 0.5
77 1 15.599454415485177 4.355551497939153 0.5
78 1 15.07363095681403 5.185713715232992 0.5
79 1 16.187163859645775 5.34320053753886 0.5
80 1 18.14952659879468 5.54047390139949 0.5
81 1 18.80025339929462 4.819224984589212 0.5
82 1 17.668618562864502 4.571794179716416 0.5
83 1 0.6462314869896769 6.462993692406708 0.5
84 1 2.707838077091678 5.864159101555444 0.5
85 1 2.6002597942109986 6.770990550110737 0.5
86 1 1.6185919351710887 6.507456566807718 0.5
87 1 3.61225593450052 6.515149888587027 0.5
88 1 4.376217872130632 7.157768531329362 0.5
89 1 5.2394538306031695 6.752511492895728 0.5
90 1 7.196046578417595 6.324325338570818 0.5
91 1 6.461145786685207 7.009030976929376 0.5
92 1 6.1789064719972 6.095109604381387 0.5
93 1 8.358907250304911 6.351025690628422 0.5
94 1 9.40942279679731 6.087529419687067 0.5
95 1 10.64344669514324 6.077309369676317 0.5
96 1 11.280069072381112 6.862216752974217 0.5
97 1 11.660058828500349 6.0722936255751 0.5
98 1 12.286197169195827 6.7229450013517145 0.5
99 1 13.00141210813998 7.213318840059377 0.5
100 1 13.428919439954953 6.153601477321138 0.5
101 1 17.172210746290713 5.815774141541453 0.5
102 1 16.450735555310455 6.536532797650109 0.5
103 1 18.322852612999128 6.4888266601460565 0.5
104 1 17.51580807340488 7.02332396199976 0.5
105 1 1.0374595268845699 8.250257936352993 0.5
106 1 1.9981479991311957 7.899759247054446 0.5
107 1 2.7621702765399694 8.36060430657976 0.5
108 1 3.252302756132987 7.444307055246982 0.5
109 1 3.8807151522367627 8.074970879342057 0.5
110 1 4.835403587742761 7.98630911707168 0.5
111 1 6.232571162644051 7.975938217614276 0.5
112 1 7.8416822100929915 7.256009233462213 0.5
113 1 10.574018237321138 8.39865607949801 0.5
114 1 11.976804954110257 7.733975705182656 0.5
115 1 12.827972956850545 8.279598153727028 0.5
116 1 14.596908993028475 7.322533839436244 0.5
117 1 15.671258752092069 7.768935064444519 0.5
118 1 15.207736114888663 8.689154401390276 0.5
119 1 17.81531964973467 8.19508475123961 0.5
120 1 0.3523560231104646 8.81017336996775 0.5
121 1 1.9470816902029449 9.890481682174142 0.5
122 1 1.8149262612263037 8.862970676296346 0.5
123 1 3.8882953369310824 9.081174400880098 0.5
124 1 5.549260881667036 8.902191532426158 0.5
125 1 4.691417790912348 9.464859968442335 0.5
126 1 6.864102371057381 9.302885375098537 0.5
127 1 5.833687513331512 9.757545607311071 0.5
128 1 8.098767379551587 8.74527039554524 0.5
129 1 9.136724709610112 10.051400329391367 0.5
130 1 9.878602288250208 9.045913342724928 0.5
131 1 11.164405259159825 9.290025459771357 0.5
132 1 12.06769174571877 8.824089231421501 0.5
133 1 12.725093634233108 9.661567646878016 0.5
134 1 13.544545540814575 8.973053059991468 0.5
135 1 13.759958550635247 9.863517343584894 0.5
136 1 16.35637922642892 8.860179961533262 0.5
137 1 15.9818200503892 9.766709711195249 0.5
138 1 17.334600175612806 9.029697027209718 0.5
139 1 17.376385472335723 10.007993401116929 0.5
140 1 0.313205689096961 10.750474377543636 0.5
141 1 0.8665697312435714 11.595947813672767 0.5
142 1 1.2227479022086096 10.544828869393758 0.5
143 1 2.0012818963854144 11.190728487600795 0.5
144 1 4.384326029888237 11.121903427565305 0.5
145 1 5.12733497937823 10.382477152433326 0.5
146 1 5.443402282478201 11.34700851433344 0.5
147 1 7.0924130085668935 10.259308579241043 0.5
148 1 8.32730429123108 10.477059755484836 0.5
149 1 9.086227857342978 11.009746863978704 0.5
150 1 9.926647837009229 10.619122221870423 0.5
151 1 10.716608676770008 11.202079908461446 0.5
152 1 11.663603790496696 11.232664633770366 0.5
153 1 11.935660767535616 10.311804186676333 0.5
154 1 12.894610699909565 10.553351863129658 0.5
155 1 12.682063829575306 11.532930457333423 0.5
156 1 13.855634812174992 10.874925171032467 0.5
157 1 14.774911340079168 10.58416286260856 0.5
158 1 15.609863027304243 11.001600993859434 0.5
159 1 16.636544361225447 10.766652980697184 0.5
160 1 17.581917843400614 11.010651960658622 0.5
161 1 18.389264081888168 10.385117017749755 0.5
162 1 18.4275421289764 11.413759394477449 0.5
163 1 0.7299340737013325 12.540114500274708 0.5
164 1 1.6117509127653689 12.220351385731737 0.5
165 1 2.4968751259472755 12.788374977104098 0.5
166 1 5.7807016451946005 12.834195496524986 0.5
167 1 4.493880440520074 12.116906377689352 0.5
168 1 6.679651210162266 11.757243584506627 0.5
169 1 7.987742186814884 11.748456604239083 0.5
170 1 9.834101701487533 11.642258593795278 0.5
171 1 9.036334402862455 12.934321816741 0.5
172 1 8.81673532089716 11.956666552982066 0.5
173 1 9.993247867706586 12.626928356823585 0.5
174 1 11.854767751767875 12.27439319999522 0.5
175 1 13.464557621726753 12.455223974170659 0.5
176 1 14.401370397804355 12.677462921452385 0.5
177 1 15.753848824134657 12.946729183728221 0.5
178 1 14.534909870454038 11.63056776167966 0.5
179 1 0.9424432316739295 13.950820813013118 0.5
180 1 1.5095617263663725 13.166441402778505 0.5
181 1 1.9691019381781354 14.151224302891801 0.5
182 1 2.730137396543177 13.630001752343574 0.5
183 1 3.76172887995294 13.163688400377087 0.5
184 1 4.234909652978312 14.205454678963601 0.5
185 1 5.713158805455661 13.993963754755914 0.5
186 1 4.772537080850068 13.18084752493388 0.5
187 1 6.960457455107068 13.733182773854315 0.5
188 1 7.954630733274522 13.614728245869944 0.5
189 1 8.910525964353745 13.957118777410885 0.5
190 1 9.768406767470095 13.666582743156958 0.5
191 1 10.876697652030643 13.165310031928607 0.5
192 1 10.604791524438376 14.172871198486527 0.5
193 1 11.813962976448204 13.298811792216627 0.5
194 1 14.24082887420376 13.65398681436142 0.5
195 1 15.281765480833686 13.913674136774786 0.5
196 1 16.32775554392649 13.87973301127783 0.5
197 1 17.47790714993328 13.63660141563465 0.5
198 1 0.07252464271465865 15.332300045462485 0.5
199 1 1.2055133529284896 15.062015549421739 0.5
200 1 2.560850376272868 15.568115442942991 0.5
201 1 4.162237932053166 15.239301361600829 0.5
202 1 2.901019649711843 14.634809916500075 0.5
203 1 6.474571387437336 14.619762684196424 0.5
204 1 7.09226215912024 15.601113759398363 0.5
205 1 5.986988263492756 15.3945254422069 0.5
206 1 7.543603703506406 14.635715013179992 0.5
207 1 8.66679097092395 14.889519207173885 0.5
208 1 9.756527373546163 14.797501044715474 0.5
209 1 10.895252133968977 15.424431345005884 0.5
210 1 11.96730143897111 14.784377142856652 0.5
211 1 13.275807251602025 14.827595509322775 0.5
212 1 14.277447577378808 15.736991398471169 0.5
213 1 15.707198632757176 15.012159807302877 0.5
214 1 14.649894861165386 14.729505656636576 0.5
215 1 16.54788259895507 15.591233120642581 0.5
216 1 18.153146985514354 15.749926738521674 0.5
217 1 18.817299386766425 15.094297331005508 0.5
218 1 0.14890122604960496 16.255121535363006 0.5
219 1 1.6304373879695255 15.981292077325913 0.5
220 1 2.434246206933062 16.606299047171493 0.5
221 1 3.7378946673817457 15.993058334164859 0.5
222 1 3.8759633946671888 17.011405236158478 0.5
223 1 2.9031089145479885 17.398220929738763 0.5
224 1 5.061677757722456 16.221519821121024 0.5
225 1 5.594779702194618 16.99077657432866 0.5
226 1 6.425168193658435 17.283801624452366 0.5
227 1 6.295475381898407 16.350345248562796 0.5
228 1 7.353985949063421 16.482677925639255 0.5
229 1 8.526048437196579 16.330810245221215 0.5
230 1 8.128560145265581 17.278748167989487 0.5
231 1 9.482358504254098 16.00052538177419 0.5
232 1 9.237077303996108 17.192462284503897 0.5
233 1 10.453678091253604 16.39047120137253 0.5
234 1 11.222821707376252 16.782755187393995 0.5
235 1 11.723943569157948 16.021870578475607 0.5
236 1 12.326285409643896 16.798292680399268 0.5
237 1 14.773251996165984 17.30567479421707 0.5
238 1 15.182845956190896 15.95975831881618 0.5
239 1 17.6021693816138 16.62760653151125 0.5
240 1 18.52155904660296 17.270489160785228 0.5
241 1 0.7472478189409455 18.42490226365997 0.5
242 1 1.005430418123944 17.43604642848704 0.5
243 1 1.973578395507567 17.819317160070977 0.5
244 1 1.6362752615550016 18.702314396055076 0.5
245 1 4.287480685136928 18.486561974979434 0.5
246 1 3.2455220735059287 18.481055970176598 0.5
247 1 4.695754712503625 17.645123761548277 0.5
248 1 7.199289841520636 18.073309915873185 0.5
249 1 6.1645757745651535 18.216541465470332 0.5
250 1 8.567946871004485 18.119582983634032 0.5
251 1 10.41264704176395 17.770932200056986 0.5
252 1 12.066598087230535 18.501948618538055 0.5
253 1 14.284839200264813 18.474494019247185 0.5
254 1 13.335204221221694 17.904207686175027 0.5
255 1 15.59096913411094 18.12342964452369 0.5
256 1 16.798254968037604 18.18248720288839 0.5
257 1 17.38905682585459 17.51731656787141 0.5
258 1 1.3083587344204273 19.632489796479938 0.5
259 1 2.300024140537273 20.000713295760228 0.5
260 1 2.428453588181582 19.13823158452096 0.5
261 1 5.232401618972136 19.059224186836385 0.5
262 1 6.801160439441363 19.26762269738768 0.5
263 1 6.091187518768405 19.968620075984777 0.5
264 1 7.840965675221388 19.05149315269541 0.5
265 1 9.717834490479634 19.964924264541775 0.5
266 1 8.854334545475453 19.356473021466375 0.5
267 1 10.25270891594997 18.915992637239235 0.5
268 1 11.211885122493898 20.152090715476646 0.5
269 1 13.02977180411077 19.41409751008787 0.5
270 1 14.159257035926082 19.49129471441261 0.5
271 1 13.524105440793075 20.281708102513345 0.5
272 1 15.099765623446684 20.139343937234454 0.5
273 1 15.933699076906851 19.728958017614616 0.5
274 1 16.895967697107167 19.340596117206132 0.5
275 1 18.1028764074172 19.12160043302745 0.5
276 1 0.7607601581248995 21.754677524357838 0.5
277 1 0.5195896052882079 20.764577181250015 0.5
278 1 1.6276881568042723 20.700353029337446 0.5
279 1 2.716926756252529 21.02411365421673 0.5
280 1 3.6375835565935803 21.660019496582997 0.5
281 1 4.621235085856979 21.355039627812033 0.5
282 1 4.758734356481306 20.39986093160441 0.5
283 1 7.831085036465609 20.682062533930758 0.5
284 1 8.731052835198183 20.365504970129162 0.5
285 1 10.036692508342687 20.864137816041083 0.5
286 1 9.150150310362243 21.473531868158066 0.5
287 1 10.90769721331786 21.059223862925247 0.5
288 1 11.88629528611838 21.26815034653983 0.5
289 1 12.240791485753237 20.38945231978535 0.5
290 1 14.10329189121777 21.05632001107717 0.5
291 1 13.07057657943044 21.18967092191854 0.5
292 1 15.069331747584416 21.114095349145323 0.5
293 1 16.0468361618967 20.705934458863613 0.5
294 1 17.005748381908983 21.16576128462402 0.5
295 1 18.118602462230786 21.726770376727007 0.5
296 1 0.7952104005043081 22.844979612404998 0.5
297 1 2.705861949340522 22.52687584177521 0.5
298 1 3.6850558774553206 22.691339450988785 0.5
299 1 7.058396458346612 22.750283872268493 0.5
300 1 6.178340786572251 22.866965919254692 0.5
301 1 9.005221704490246 22.75609157596464 0.5
302 1 10.19953448600474 21.77689010537751 0.5
303 1 10.308334649403312 22.912447027420612 0.5
304 1 11.670731426851056 22.193724838841774 0.5
305 1 12.5691907311171 22.072102472477685 0.5
306 1 14.051663668100737 22.084057291124946 0.5
307 1 13.115341152724758 22.88235256281331 0.5
308 1 15.923554451619427 22.59030803409285 0.5
309 1 17.1192248781538 22.318779030117216 0.5
310 1 18.118677886954114 22.625493667524694 0.5
311 1 18.848902345840255 23.11960103003702 0.5
312 1 0.707559329526507 24.07014110576006 0.5
313 1 2.382474676841708 23.806418560648723 0.5
314 1 3.7869622211418426 24.152240917101025 0.5
315 1 4.563007199448871 23.46218012338628 0.5
316 1 5.0583590698960865 24.224082966069577 0.5
317 1 5.990457800765777 23.907940238246283 0.5
318 1 6.612032945700001 24.645216908763455 0.5
319 1 6.841663515867728 23.688793704620945 0.5
320 1 8.20643617210026 23.341613703148766 0.5
321 1 7.655722554731344 24.435498465553938 0.5
322 1 8.95389518026652 23.951083179989073 0.5
323 1 9.729148198978619 24.489804266349065 0.5
324 1 11.151771618002627 23.727939136027434 0.5
325 1 12.07908087894108 23.254271873536602 0.5
326 1 12.819977936177928 23.964659630187857 0.5
327 1 13.976540643667478 23.28534685954715 0.5
328 1 14.150998028721823 24.428974226986192 0.5
329 1 15.728468404735267 23.515505402778164 0.5
330 1 16.691868395785484 23.29451096343133 0.5
331 1 16.783697996435578 24.301129320947663 0.5
332 1 17.657832827428802 23.65255212506253 0.5
333 1 17.747739097634067 24.591589930478264 0.5
334 1 1.341971762370911 24.783131015366077 0.5
335 1 1.0214619430670056 25.965979238934935 0.5
336 1 0.1324805095341785 24.871076242764854 0.5
337 1 2.3296057170259523 25.389017817848377 0.5
338 1 3.243606285533434 25.427899262723223 0.5
339 1 5.5696255569652084 25.492198839359116 0.5
340 1 4.428600342480931 25.164176717611884 0.5
341 1 7.101086851749448 25.56234383205282 0.5
342 1 7.950067537513265 26.070781891997196 0.5
343 1 8.74549666971522 24.945558157049835 0.5
344 1 9.66839358433907 25.511696130339033 0.5
345 1 10.818922313962496 24.826387094193866 0.5
346 1 10.54554540426536 25.90929755935502 0.5
347 1 11.68132860047844 25.28787326386745 0.5
348 1 12.680329060938792 24.948499721259573 0.5
349 1 12.346272961325436 26.101328904944452 0.5
350 1 13.268604190524337 25.943314109575304 0.5
351 1 15.44358922473083 24.7668769874892 0.5
352 1 15.133442762411995 25.723790452333333 0.5
353 1 17.206868406659268 25.67250164047127 0.5
354 1 16.263569104375584 25.440344342072102 0.5
355 1 18.62606000077192 24.66241374568191 0.5
356 1 0.31125294301003625 26.667165179340344 0.5
357 1 1.1723528733179651 27.307935916361178 0.5
358 1 2.0072366782920468 26.330620063857214 0.5
359 1 2.1293945601917517 27.26769682646646 0.5
360 1 2.9905148551749785 26.468873581714806 0.5
361 1 3.123492413635879 27.405874919600727 0.5
362 1 3.966586199744057 26.224120354520103 0.5
363 1 5.068993955885133 26.751226033487804 0.5
364 1 6.06320494641425 26.43983506323408 0.5
365 1 5.9431664992400215 27.48661708592181 0.5
366 1 7.379064669569504 26.79101257504257 0.5
367 1 8.106573838415887 27.46395195656218 0.5
368 1 8.872964452137115 26.204623063540186 0.5
369 1 11.321892081465693 26.65385271567321 0.5
370 1 12.397863472080807 27.370500724360568 0.5
371 1 14.34087976969645 26.388734813180335 0.5
372 1 16.882202685100072 26.616970025966516 0.5
373 1 17.918462958883747 26.972597596451273 0.5
374 1 2.0432557549166477 28.490180742143426 0.5
375 1 3.288220009381097 28.500740203409144 0.5
376 1 4.460467288086406 28.32858327241626 0.5
377 1 6.864328645227361 27.56008076644189 0.5
378 1 6.8028952080778735 28.654116378293715 0.5
379 1 7.716892005349189 28.224308592417284 0.5
380 1 8.659738759292916 28.45046962531199 0.5
381 1 9.72801682812872 28.26307690020714 0.5
382 1 11.460485010578257 27.879768456261534 0.5
383 1 13.715118552617602 28.812621434364488 0.5
384 1 15.25793126826249 28.58940196567952 0.5
385 1 17.236020062224988 28.38914932524749 0.5
386 1 16.21744688606139 28.70657427336734 0.5
387 1 18.128897936964865 28.022358895710404 0.5
388 1 0.9174776482528365 29.019963998789216 0.5
389 1 0.9016422275904242 30.18022251772177 0.5
390 1 1.7178810409581788 29.528628332903573 0.5
391 1 2.2943748287601133 30.29192653296841 0.5
392 1 2.793441366831163 29.26377441694234 0.5
393 1 4.011991883186649 29.3437246236685 0.5
394 1 5.171722429055914 29.65899996717354 0.5
395 1 6.84317201033426 29.660923297618368 0.5
396 1 6.124223547585442 30.1323278184094 0.5
397 1 7.75309587254594 29.240505889796097 0.5
398 1 8.259686026768813 30.101365969483844 0.5
399 1 9.760411746797478 30.388357041741425 0.5
400 1 9.23251410823485 29.36684230136809 0.5
401 1 10.23317391260839 29.167947305955938 0.5
402 1 11.944975720866447 30.361128716620534 0.5
403 1 13.56215721371133 30.10672112484003 0.5
404 1 15.463991612390668 29.804267984300505 0.5
405 1 14.515374867112458 29.3540955231259 0.5
406 1 17.28029437481768 29.52549820688552 0.5
407 1 17.798122812816214 30.373762357777732 0.5
408 1 18.46672527274455 29.072233332054527 0.5
409 1 18.825860092863987 30.011535124001906 0.5
410 1 0.8033864405129079 31.336294964509694 0.5
411 1 2.5392751341653037 31.35443461046973 0.5
412 1 3.4114338374073743 30.615008335337755 0.5
413 1 3.9108096168440625 31.447207020161407 0.5
414 1 4.493352467456788 30.595397907272844 0.5
415 1 6.996736747027145 30.964262516701414 0.5
416 1 6.030432904128857 31.26053082992816 0.5
417 1 7.73322145794939 31.528854283162413 0.5
418 1 8.640920290822937 31.851672099000112 0.5
419 1 9.0161582893726 30.980705106386605 0.5
420 1 11.067409064961861 30.558628354651145 0.5
421 1 10.203946832319346 31.267809315729174 0.5
422 1 12.780266819346492 30.96595957297626 0.5
423 1 11.656513866503998 31.459953798403596 0.5
424 1 14.341483167483062 30.85082373281826 0.5
425 1 13.638185334824506 31.720433080411887 0.5
426 1 15.384456241642805 30.6895279619844 0.5
427 1 15.012084382579552 31.686982215616556 0.5
428 1 16.40446248754961 30.609992591236537 0.5
429 1 17.10919338995137 31.322303678332617 0.5
430 1 18.40845967397478 31.300845344546207 0.5
431 1 0.6739463015760232 32.542336290501474 0.5
432 1 1.5760486199787396 32.182032387170466 0.5
433 1 2.566005656112239 32.26567840533963 0.5
434 1 3.7548086615877274 32.42063849941405 0.5
435 1 5.615710062917739 32.22615585031651 0.5
436 1 4.482491307297762 33.06472792426126 0.5
437 1 5.381742571158735 33.35537709560018 0.5
438 1 6.827181968989027 32.97727295756411 0.5
439 1 6.916032293067721 31.959906576973736 0.5
440 1 8.14703920248059 32.573222714703704 0.5
441 1 9.540473253577215 32.45706864078079 0.5
442 1 10.840229798302248 31.99418711372566 0.5
443 1 12.112041483034789 32.37187641578343 0.5
444 1 14.200288085415732 32.7124944663262 0.5
445 1 13.27022582207586 32.504925627731495 0.5
446 1 14.981235670738988 33.17805357105942 0.5
447 1 15.9101288508673 32.97086185608135 0.5
448 1 18.617046746334395 32.94989378299657 0.5
449 1 17.56645577511867 33.193327077533056 0.5
450 1 17.997885192546622 32.136702128451205 0.5
451 1 2.4843659355835643 33.40500656354906 0.5
452 1 2.1436950877344683 34.36127891824491 0.5
453 1 3.4266206054491777 33.51143084816284 0.5
454 1 4.5791103778790925 34.06817844339788 0.5
455 1 6.142815741885439 34.394201809976956 0.5
456 1 7.184770582280272 34.613084357070655 0.5
457 1 8.235700964750967 34.66373205878444 0.5
458 1 7.403803978820617 33.75573152701759 0.5
459 1 9.760411746797478 34.7715139884181 0.5
460 1 10.235851490286484 33.53122983803606 0.5
461 1 13.088829362475469 33.97604714385448 0.5
462 1 14.034843954798912 34.42146784745951 0.5
463 1 15.082832773059872 34.14364087908611 0.5
464 1 16.589969594571293 33.60326044881293 0.5
465 1 18.5891018863419 33.94470817131229 0.5
466 1 17.84303823555718 34.48874670066681 0.5
467 1 0.31616158400412914 35.84254505965532 0.5
468 1 1.365787118761274 36.11569569518248 0.5
469 1 2.2900190509880045 35.27316382326308 0.5
470 1 3.9651531300008522 34.95928383713959 0.5
471 1 3.5215237635748284 35.74713278464722 0.5
472 1 4.521900725235892 35.73664874810483 0.5
473 1 5.432201711064207 35.46772189708396 0.5
474 1 6.360604630490896 35.97759302677154 0.5
475 1 7.815660680545326 35.61472468284744 0.5
476 1 9.01664855007422 35.94670660256931 0.5
477 1 10.065957300993395 35.811168374751475 0.5
478 1 11.287800106522086 35.502341845090854 0.5
479 1 12.394544784254439 35.03101274902315 0.5
480 1 12.251426371742282 36.15288008378248 0.5
481 1 13.494765223419042 35.25204490073165 0.5
482 1 13.994529440180864 36.100120489815545 0.5
483 1 15.148565419438972 36.146091858683086 0.5
484 1 15.536399346784169 35.143734998034695 0.5
485 1 17.318911833160882 35.668012249877656 0.5
486 1 16.361583532338454 35.79351898949306 0.5
487 1 18.68145946005528 35.03666960327264 0.5
488 1 18.174077346237475 36.1696997970843 0.5
489 1 1.2973165549254182 37.260001885131466 0.5
490 1 2.3912239447475896 37.66035631654887 0.5
491 1 2.410611869878683 36.68089085943009 0.5
492 1 4.091866665189482 36.53995976389441 0.5
493 1 4.370523305519476 37.624227874075444 0.5
494 1 5.771462116587096 37.54880315074888 0.5
495 1 6.989797672481102 36.74368194159946 0.5
496 1 8.260063150385447 36.60301483259542 0.5
497 1 7.545112197972937 37.56460463028579 0.5
498 1 8.569342228386027 37.54544675056085 0.5
499 1 9.744949678515535 36.73368816575869 0.5
500 1 9.444910129122459 37.61521461963792 0.5
501 1 10.509077550536965 37.23367865669049 0.5
502 1 11.190502213430818 36.517784895236396 0.5
503 1 12.298943947438017 37.176959264748916 0.5
504 1 13.146453851096966 36.648495940761336 0.5
505 1 14.427090228458715 36.92832166430289 0.5
506 1 13.50770056346955 37.50456655051785 0.5
507 1 15.25585708837101 37.53639578376166 0.5
508 1 16.920970992889924 36.743983640492765 0.5
509 1 18.298452715002984 37.068649362051964 0.5
510 1 20.174944406644595 0.39218593388114037 0.5
511 1 19.015025298967014 0.2792973733546538 0.5
512 1 20.598642789931574 1.4182412425987339 0.5
513 1 21.100141775329906 0.05762448862149572 0.5
514 1 22.118073841345225 0.18312066877563427 0.5
515 1 23.079437364865626 0.7620235222406196 0.5
516 1 23.98822985622741 1.2261533284668042 0.5
517 1 25.075100119363213 0.21647800691404093 0.5
518 1 24.88601033798351 1.1979972792489975 0.5
519 1 25.96465930627672 0.8536494761377309 0.5
520 1 27.01555197638575 1.0231627705780195 0.5
521 1 28.15325850304366 1.2741837922811607 0.5
522 1 29.09165519831112 0.7008993264567712 0.5
523 1 30.11656405123415 0.8090282098177349 0.5
524 1 31.068386347253735 0.7857068853651611 0.5
525 1 32.52306527369153 0.729066689383077 0.5
526 1 32.006330494181235 0.027688491357905364 0.5
527 1 34.01722904279079 0.6186976917393142 0.5
528 1 35.02848602079171 1.2707745947867999 0.5
529 1 35.89160884217925 0.9296474273615778 0.5
530 1 35.66993558032248 0.019863176312774237 0.5
531 1 19.45211157064446 1.5567549757518042 0.5
532 1 20.336466451648434 2.574536192320473 0.5
533 1 21.48526041263535 2.5724582411928263 0.5
534 1 22.36927588238435 1.7249068539360484 0.5
535 1 23.221198132357905 2.185880135491016 0.5
536 1 24.31338583848823 2.1608504410550955 0.5
537 1 25.43683709243742 2.2530496228494883 0.5
538 1 26.377609666489665 1.9369031237900247 0.5
539 1 27.339312601265032 2.2044647873186816 0.5
540 1 28.62590753176958 2.1416812476216487 0.5
541 1 29.881502900986906 1.8206887100884535 0.5
542 1 30.46887293389253 2.6608560169315605 0.5
543 1 31.634637457627925 1.5965641447235652 0.5
544 1 32.82544298950773 1.6692283231763778 0.5
545 1 32.45363681586943 2.5229041979672733 0.5
546 1 34.51737038316924 2.091538891554148 0.5
547 1 35.823236330483724 2.1073629985080617 0.5
548 1 36.78607063610899 1.4554859709773915 0.5
549 1 36.86594541811182 2.6289966137984195 0.5
550 1 19.221613616158475 3.4916970567353385 0.5
551 1 20.748360865734806 3.669654148952036 0.5
552 1 22.30079023360383 3.6036160324434614 0.5
553 1 23.222480352654454 3.123134146200078 0.5
554 1 24.047702250570406 4.1449279580497205 0.5
555 1 25.7661414344812 3.1737667629692012 0.5
556 1 25.041460692759564 3.954405106926817 0.5
557 1 28.858705940317023 3.6071195108419807 0.5
558 1 31.031729931717024 4.06060311737062 0.5
559 1 31.459916086041936 2.97311437150354 0.5
560 1 32.56236155454467 3.468326706212602 0.5
561 1 32.03529358793864 4.215827197976691 0.5
562 1 33.72337432071049 3.7104362968547093 0.5
563 1 35.333805300817644 3.8733235293507597 0.5
564 1 36.25987005382121 4.3382038115740436 0.5
565 1 37.45678498829047 3.6243880012475977 0.5
566 1 19.72382913642841 4.99681249566161 0.5
567 1 21.248238219581616 5.558198711381233 0.5
568 1 20.733766181771117 4.733542498890234 0.5
569 1 22.318741317755553 4.579412076772398 0.5
570 1 22.213750102884973 5.596325909022812 0.5
571 1 23.307106892226862 4.718721540756564 0.5
572 1 23.622797071710202 5.68981485358609 0.5
573 1 24.565153564952304 5.26174183634617 0.5
574 1 26.011271785292536 5.49118384470558 0.5
575 1 25.888857459333522 4.4712153111604405 0.5
576 1 26.872207289703613 5.041350794785946 0.5
577 1 27.782696837340247 4.607884909828177 0.5
578 1 28.806738305945018 4.935228209065469 0.5
579 1 29.655341868092204 4.414609056303854 0.5
580 1 30.371499616077937 5.043839810655723 0.5
581 1 31.33689836229631 5.203476237576397 0.5
582 1 32.46366830407186 5.228366396274165 0.5
583 1 32.971389829144634 4.417852319406896 0.5
584 1 33.399613695831206 5.198988466538467 0.5
585 1 34.78663664544508 5.182734438661592 0.5
586 1 36.11158504776118 5.541492135164399 0.5
587 1 37.1570471377907 4.937453238403603 0.5
588 1 20.179432177682525 5.878791497880798 0.5
589 1 19.5523133155838 6.4554512200740515 0.5
590 1 20.611653554705406 6.770010028707492 0.5
591 1 21.85970645159008 6.578619793266332 0.5
592 1 22.828009049656522 6.354042679561484 0.5
593 1 24.32809365953691 6.83951391125292 0.5
594 1 25.383134689428903 6.314972672878324 0.5
595 1 26.847392555729172 6.012896655955431 0.5
596 1 26.162309793753984 6.833140522131826 0.5
597 1 27.229192505208246 7.235644558164041 0.5
598 1 27.803740335148355 6.495049199820498 0.5
599 1 28.579219628030433 5.868571447870049 0.5
600 1 28.93303700515535 6.7566598526786885 0.5
601 1 30.031975224023405 6.777137665061852 0.5
602 1 30.654116054382577 6.037145704504922 0.5
603 1 31.854349676678208 6.313501890773456 0.5
604 1 30.98213817612981 6.948955184799767 0.5
605 1 32.77204228539252 6.3287376848854215 0.5
606 1 34.356376311228686 5.991362897445697 0.5
607 1 34.66629649937754 6.954197203070963 0.5
608 1 35.38671574423123 6.418832516899004 0.5
609 1 36.967617945156036 6.031262576085449 0.5
610 1 37.447055198981346 6.959891769682119 0.5
611 1 36.50488726754756 6.942921206933641 0.5
612 1 20.091562375007076 7.601756165191188 0.5
613 1 19.022454634214682 7.3383730313348225 0.5
614 1 19.53941568789496 8.483282619070417 0.5
615 1 22.67425575115532 7.96345542590373 0.5
616 1 24.28853339215213 8.412232529696793 0.5
617 1 23.67487784316719 7.672391418586515 0.5
618 1 25.0280728043691 7.512340155687544 0.5
619 1 27.65741637189482 8.124939758545906 0.5
620 1 28.244673267715456 7.416513044701143 0.5
621 1 30.172227497049153 7.767464282339652 0.5
622 1 29.27746400422611 7.875774185036598 0.5
623 1 31.43804291627723 7.904322442815703 0.5
624 1 32.32601818400088 7.274488290677222 0.5
625 1 33.04217593198662 8.034656364724007 0.5
626 1 34.12022150249321 7.753850119779206 0.5
627 1 34.006782718610054 8.693265048811574 0.5
628 1 34.92179774964628 8.32719115414609 0.5
629 1 36.54320302699745 7.931927891553226 0.5
630 1 37.521499400904666 7.976089067060929 0.5
631 1 20.119959783339528 9.233117506021463 0.5
632 1 19.123071215132317 9.369259131625913 0.5
633 1 21.146414843090753 8.783284456101828 0.5
634 1 21.63580816039517 9.831047000192807 0.5
635 1 22.731578540883508 9.707539015745558 0.5
636 1 22.112190712925756 9.015404042139332 0.5