Converted from xyz.tmp using xyz2lmp.py utility.

2744 atoms

1 atom types

0 20.913222 xlo xhi
0 20.913222 ylo yhi
0 20.913222 zlo zhi
0.0 0.0 0.0 xy xz yz

Masses

1 1.00

Atoms

1 1 0.7959363160980001 1.0124571774306 0.6648396926688
2 1 0.27124448934 0.18680463679614 0.9440144757912001
3 1 0.6334761336354 0.22213606143960002 0.020307240479328
4 1 1.5305968917360002 0.435862916313 0.7576902157044
5 1 2.4234032521380002 0.05016684606582 0.7475347551012
6 1 2.27765900802 0.814141275849 1.3178445930078
7 1 2.346756293508 0.8087812170504 0.14522036790690002
8 1 1.722893968026 1.3130847436806001 0.6951115815138
9 1 3.0338811155400003 0.6297828586302 0.572844520413
10 1 3.388966711878 1.4664957749838001 0.6998254217526001
11 1 4.345767531600001 0.8317648480284 0.4874391044094
12 1 3.886220391372 1.4048310485946003 1.4306818823088
13 1 3.6889250550240003 0.5033854361844 1.2766016279016001
14 1 4.975736517906 1.3373315332674 1.1949145827696002
15 1 5.824855157550001 0.3398795926218 0.2818830453714
16 1 5.137374810744 0.46168238019420005 0.7634288038212
17 1 5.811177910362 1.2751878940944001 0.723733417143
18 1 5.573122704336001 0.7246347770112 1.4406177540810001
19 1 5.0454612000540005 1.3352924941224 0.11740494611802
20 1 6.765510969888001 0.37221561647820006 0.24553377421320002
21 1 6.298476896184 0.3520615444368 1.0150420516698
22 1 6.66786713637 1.089453386868 0.817361912037
23 1 7.492140868278 0.5592655653684 0.7573033210974001
24 1 8.623316133036 0.15909189892728 1.2640118682576
25 1 8.316100901856 1.2610631039556002 0.8194615995258001
26 1 8.377355729094 0.4532648083392001 0.38544532071540005
27 1 7.567993124472 1.3732060742862 0.3532703286684
28 1 9.876980139048 0.6838288982448001 0.4028158429086
29 1 9.199349919804 1.089380190591 1.1155970056902
30 1 20.789750337312 1.0241079334068002 1.3045207792716
31 1 20.649234398694 0.6322819886592 0.28919221646040005
32 1 19.43486633682 0.0222579421746 0.788731711119
33 1 1.2052749929484001 1.8332321272980001 1.3177504835087999
34 1 0.03288666899166 1.6164310287905999 0.595775868336
35 1 1.4312904570690002 2.3697399244860002 0.6226786371168
36 1 0.4962435708714 2.4477044161020003 0.31105280741700003
37 1 2.532465704868 1.6790619460362002 0.44166215277360005
38 1 2.359973449812 1.9734573721302002 1.213416510273
39 1 2.44601044512 2.890960156392 0.48373746411540003
40 1 4.290472972632 1.8613227670884003 0.7360052958126
41 1 3.2498519591340003 2.129154218598 1.2529278605976
42 1 4.340915664096 2.8836823551360005 0.6117493872996
43 1 3.129747325188 2.3460661571820003 0.3465655496952
44 1 4.848814173588 2.363152259556 0.07681405527378
45 1 5.704562304606 2.13461256954 0.13331175190344
46 1 5.369657967498001 2.157031543524 0.9494581874778001
47 1 6.342394662384 2.8029782314380003 0.7076992498356001
48 1 6.568780290534001 1.7644422661734003 0.24263520164400001
49 1 7.176727654074 2.3438075292060003 0.6779313696408
50 1 7.239655539072 1.528170957984 1.310181988467
51 1 6.331394307612 1.9463245579074002 1.163203864251
52 1 8.18303007027 2.184657909786 0.3319367509062
53 1 7.811213896332 2.29616720949 1.4387230161678002
54 1 9.452399906004 1.6581424500696003 0.17891177768112002
55 1 2.752514626752 3.71471105775 0.049015154930280004
56 1 3.4949340077519997 3.2573807190540003 0.5062317256986
57 1 5.265551948382 3.1052161157820004 0.597365273208
58 1 7.370467742682 3.0830481004620003 0.12152485085202
59 1 1.9308592302384 10.28020797243 0.41251957791660004
60 1 2.6652437513460003 10.609486652820001 0.0828634138695
61 1 1.5302183624178 11.129912182290001 0.5240832519978
62 1 2.441074924728 11.658284736119999 0.5392976210028
63 1 3.8617310084100005 11.857504088892 0.3767056852416
64 1 4.204373237658 10.996653131706001 0.5941383630534001
65 1 3.2726055446700006 11.319114101724 0.7960157863416001
66 1 5.968340773692 11.496437311062001 0.4343738949066
67 1 4.926381313986 11.52015290481 0.7650600351372
68 1 5.161885106928 10.763136094854001 1.1919637271454002
69 1 5.714098733838 10.651062138156002 0.257797287594
70 1 6.780150225288001 10.95026760531 0.5231944400628
71 1 6.342269183052 11.48993329902 1.3197686094318
72 1 7.59139501989 11.582808917922 0.5903677091268
73 1 0.24502140027420002 12.588881288676001 1.1945883365064
74 1 0.6540882052386 12.033697984242 0.3517771246176
75 1 0.9960612113826001 12.786490323354002 0.6297703106970001
76 1 0.9868719416358 13.42095565239 1.3696340959686002
77 1 0.3003389637864 13.324001955198002 0.6094510242018
78 1 1.7870745550218001 12.081170998182001 1.0796283551724002
79 1 2.592382085898 13.058257643244001 1.1855893770798
80 1 1.6727001439038 13.035985061814001 1.1746998623844
81 1 2.406045277878 12.625604906508 0.462422708253
82 1 1.6396133353776001 12.075336209244 0.19116818056644
83 1 4.10181479697 12.730338322284 0.38168094075540004
84 1 3.0711484771440003 12.161603249994 0.9092608834716
85 1 4.005655802214 13.067459460924 1.1755510305198
86 1 3.92875788492 12.177685517712002 1.1821888871826
87 1 3.3096010343880002 13.272639081966002 0.6431401335216
88 1 5.41631536578 12.313014977274001 0.4580581188216
89 1 4.759201017318 12.598877808792 1.0835307623976
90 1 4.991212302186 13.101359793786001 0.3377443526556
91 1 5.5051338196140005 12.050093950290002 1.2983095523376
92 1 5.706841845804001 13.105918876182002 0.8981726931672
93 1 6.776113973442 12.006866320416 0.5090842891794
94 1 6.3446742035820005 12.780341836086 0.34816959382260004
95 1 6.447462689712 13.405396215222002 1.1156074623012
96 1 7.2763373304600005 12.997191035004 0.8996784451512
97 1 6.291199094928 12.477413815416002 1.2274681041348001
98 1 8.63329173993 12.03482729823 0.7451757436596
99 1 7.569938054118 12.462900039348 0.0552537781851
100 1 8.749820212914 12.545068088586001 0.07720994256624
101 1 8.284480110192 13.341129884016002 0.03333295714914
102 1 8.340778503816 13.122565800894 0.8300520551466
103 1 9.556882363116001 12.087235832562001 0.49652171672400003
104 1 9.313222413594 12.878508500154 0.9934554239214001
105 1 20.318219920878 13.076765844714002 0.4048005076764
106 1 1.1893704876174 13.685466084246 0.6105134158794
107 1 0.4498580444754 14.120272882848 1.028679563736
108 1 0.8255975388606 14.867648697462002 0.5252543924298
109 1 0.6246904890732 14.192507151636 0.03035386867524
110 1 1.9057319940054003 14.536090475874001 0.538463183445
111 1 2.1138457400940003 13.628561207184001 0.6071150173044
112 1 1.6319047217484 14.093859483462001 1.3664657428356002
113 1 2.7646024690680004 14.084051182344002 0.9256631234862001
114 1 3.5247562623240003 14.076689728200002 0.425918679252
115 1 4.188751060824 13.564754966862 0.22157558709000003
116 1 4.33771594113 14.811747655056001 1.3250826591420002
117 1 3.5238779070000006 14.740956398586 1.1303199139782
118 1 3.8347111255860002 13.91910860043 1.2180864327456
119 1 4.405119255636 14.325724375776 0.5802603489342
120 1 4.722707444928 13.675114039356 1.1938187299368002
121 1 5.339312882375999 13.948512590562 0.5782840494552
122 1 5.2217596615140005 14.664811357284002 1.1915391887388
123 1 6.45089245812 13.824246225438 0.3683194832196
124 1 7.359718346574 13.640419004058002 0.2617875303516
125 1 6.16605437448 14.419478350002 0.9552469673274001
126 1 7.216881040314 14.659875836892 0.5145300921882
127 1 7.213660404126 13.945375607262001 1.1192108104518
128 1 6.379390152102 14.894396708400002 0.1915149217872
129 1 6.880931042106001 14.78418402846 1.4334173317464
130 1 8.079363228816 14.910855414114002 0.3134410973694
131 1 8.021287211321999 14.105048057232002 0.6426026637162
132 1 8.695654967934 14.187613457688 1.1588769186192
133 1 10.220040632736001 14.575365506790002 0.15029872560516
134 1 9.028007891958 13.608108076068001 0.4177332441612
135 1 9.305296302456 14.741353749804 0.5771631007560001
136 1 10.302438727416002 14.471803231446 1.2966615904440002
137 1 10.126349398176002 13.469537067096 0.337706708856
138 1 9.62478759495 13.732499920523999 1.0766628602928001
139 1 11.05410175254 14.040007936812001 0.4476663388098
140 1 20.634490577184 14.223730592082001 0.18722394689724003
141 1 20.479628168274 13.516780035594 1.2087695923446
142 1 19.878247556442002 14.347515953100002 0.68082994221
143 1 1.2462042597246 14.99153862459 1.3578453127272
144 1 0.0791534082867 16.398078283422002 0.43266528466920007
145 1 0.9593250456174001 15.768046557449999 0.8165923054674
146 1 0.280540416519 14.987481459522002 1.3487292392574
147 1 0.4852787685768 15.532103586846002 0.0687469890195
148 1 2.613232568232 15.995917024362 0.4994934855702
149 1 1.7499117595278 15.500336402628001 0.7062436895844001
150 1 2.70909877788 14.96999800593 0.7760708465202
151 1 1.823225150571 16.226589863022 1.2739665619296001
152 1 1.7721571537692 16.339040257716 0.379930504074
153 1 2.6361952859880002 15.726073720896 1.3920698005302001
154 1 3.243828951198 15.060907781964 0.08540060596254
155 1 4.16580925629 15.23789637975 0.52962734715
156 1 3.474125351862 15.64434484932 0.7694476291128001
157 1 4.1733798426540005 16.236941907912 0.7490781508848
158 1 3.993567959898 15.686882342868001 1.4631893945856
159 1 5.761948185774001 15.359694984678 1.0868873345286
160 1 5.247085573356 15.106498605924001 0.31507442000760005
161 1 4.8836765146620005 15.55149014364 1.0194233716788001
162 1 5.6990621272199995 16.333811952216 1.4860977379644003
163 1 4.758406314882 15.870061254366 0.10871863936032
164 1 5.9727534635340005 15.878886634050001 0.3826638621894
165 1 7.24810448076 15.712647432372002 0.1169289611853
166 1 6.628215667458001 15.400622160132 0.8484828776952
167 1 6.502443550350001 16.27477392651 1.1361797987826001
168 1 7.334350608288001 16.240120717656 0.8119621181166
169 1 8.52548408052 15.17097406935 0.9507631725305999
170 1 8.087540298618 15.934139366574 0.4923599855460001
171 1 8.552336657568 16.134738991998002 1.214828152758
172 1 7.589638309242 15.286226835792002 1.04921634774
173 1 8.74705966761 15.425006976984001 0.079961704317
174 1 9.657014870052 15.162169602888 1.2696542555532002
175 1 10.064529913944002 15.481075325166001 0.509644763529
176 1 10.002982301598001 16.335715055418 0.288560637156
177 1 9.220116749250002 15.795401051826001 0.668344748676
178 1 10.00519910313 15.986589727350001 1.2916298692308001
179 1 10.969131331554 15.100203726102002 0.20331541643292003
180 1 11.445325396494 15.986087810022001 0.33310370869379996
181 1 10.883282555244001 15.743452608378 0.9596533832028001
182 1 19.028543346582 15.726722030778001 0.17524589899674
183 1 20.841636041094002 14.967509332512 0.5182150019046
184 1 20.061656513382 15.525264963252 0.4252264516038
185 1 20.911590768684 15.755143099476001 0.9749827749288
186 1 19.604869918458 16.228932143886 0.8041991301102001
187 1 20.340889853526 15.156836731278 1.2884134156872
188 1 19.434364419492 15.365989864500001 1.1037559393938001
189 1 0.46401629576940007 17.293812494904 0.4111393052646
190 1 0.9471807376020001 16.532822172768 0.12666490255518
191 1 1.4789976990954001 17.370794065086002 0.38787961975620006
192 1 1.1259846030576002 16.750717032786 0.9364752592602001
193 1 1.0237356780552 17.667719991042002 1.1370978892284
194 1 0.05295311463288001 17.637625864584002 1.1823060012258
195 1 0.3162622910172 16.751846346774002 1.3050185139552002
196 1 1.841430110322 17.35525554114 1.3306894939601999
197 1 2.61770799774 16.761863780112 1.4466449446614003
198 1 2.254675377042 16.95832258758 0.6733074562566
199 1 2.3569201194 17.882833392534 0.6081000300606001
200 1 2.7191998641060002 17.652265119984 1.4363514567930002
201 1 3.094173934566 17.33925692631 0.6483036080334
202 1 3.4929263384400002 16.5988243014 1.1941324282668
203 1 4.074251170374 17.084805754236 0.6442401689988
204 1 3.4285345279020003 16.47073081665 0.34169695161360003
205 1 3.652849747074 17.513066714352004 1.3136410353858001
206 1 5.904994624254001 17.458462291710003 0.09902180571558002
207 1 4.57413991584 17.443655730534 1.446661675239
208 1 5.417319200436 17.220825350124002 1.3084378257522
209 1 5.046444121488 17.479814691372 0.506476410396
210 1 5.348012782728 16.629232126188 0.4770975161304
211 1 4.802763258744 16.533010391766 1.2441401247132
212 1 7.086633493698001 17.156914543692 0.5889916191192001
213 1 6.947874265728001 17.672571858546 1.4016522388506003
214 1 6.186695724594 17.09321286948 0.8580945945264
215 1 6.746375371758001 16.442748925614 0.19470920731548003
216 1 6.684514061082 17.885468458506 0.4577005027254
217 1 8.161677670608 16.80189168702 0.556940015082
218 1 7.831750680336 17.347747694442003 1.3367647849511999
219 1 8.285483944848 17.663976524304 0.407588240169
220 1 9.146983211916 16.623250944696 0.11351926947042
221 1 9.541824843276 17.482868021784 1.4460865616340002
222 1 9.354233241936 16.59401426034 1.1722990244988
223 1 10.150755128250001 17.114272484034 0.7703908154250001
224 1 9.054316725234 17.300734771386 0.6018595246158001
225 1 11.293537231218002 17.623195741404 0.593109432531
226 1 10.946482312128001 16.793191786668 0.9309918124518
227 1 11.419058389662 16.840915759272 0.11718075637818001
228 1 19.359704216952 16.55417457243 0.0433708854447
229 1 18.556322793822 17.148047337564 0.45268969473420007
230 1 20.379642053892 16.558315390386 1.2543206811828
231 1 19.54675207452 17.326855385664 0.7737076524342
232 1 20.322047040504003 17.05619646654 0.33246794674499996
233 1 0.04024498615236 18.051519441186002 0.1280955760722
234 1 0.5098559870712001 18.523844560056002 1.1420375922648
235 1 0.8666481023244001 18.219118002294 0.4083432074832
236 1 1.4026247036736 19.251645598878 0.9788412643878002
237 1 0.09152587955412002 19.288808394372 1.37933155701
238 1 0.498037925319 19.232802785856002 0.500422032627
239 1 2.14339612278 19.013966830848002 0.4908625988508
240 1 1.5467941821750002 18.416936169192 1.0135091124972
241 1 2.637345513198 18.587692626822 1.2471704505810002
242 1 1.7870097240336003 18.293903684166 0.05486981142918001
243 1 4.1449587739560005 18.029665124196 0.7645623004536001
244 1 3.1959794992620005 19.136392832436 0.40572905473320003
245 1 3.28044800292 18.233757257694002 0.6783538167252001
246 1 3.664582064616 18.862283231682003 1.1945297794848
247 1 3.90418484907 18.727685734890002 0.2089460923242
248 1 4.667810237178 19.39053030618 0.03878106061236
249 1 4.813303522632 18.405705768978 0.2235602518578
250 1 5.647531948212 18.247685463546 0.45545233136040003
251 1 5.314530714306 19.148250629310002 0.656612431134
252 1 5.20310506749 18.273994296822003 1.2483666868794001
253 1 4.51223677872 19.003614785958 0.8962424027766001
254 1 5.872558216932 18.870042037044 1.2448093478172002
255 1 6.712956043002001 18.557954025138002 1.0501323468636001
256 1 6.262276108902 18.893172060576 0.3848722984326
257 1 7.390899960576 19.040171098014003 0.7171792133682
258 1 6.057242880414 17.937856079616 1.222639241175
259 1 7.984291721604 18.659153106396 0.08297739092940001
260 1 8.632873475490001 17.964081260004 1.1920557453222
261 1 8.120834148042 18.641920611468002 0.9446481464178
262 1 8.674720832712 19.355145134556 0.2965432139934
263 1 8.878206482772 19.12597804788 1.2601533787986001
264 1 7.533298089174001 18.09913884768 0.8280234726126
265 1 8.806850569308 18.438079436634 0.4661389878024
266 1 9.518130162750001 18.03368046282 0.4911344707368
267 1 10.338179423814001 19.276846031388 1.0711982353842
268 1 10.221128120280001 18.562596760422 0.22861706893740003
269 1 9.4600959717 19.022102074206 0.3532117716468
270 1 9.690517851696 18.403739926110003 1.2599672511228
271 1 11.192149930962 18.65020224738 1.33614575358
272 1 11.154192433032001 18.415514070096002 0.26242538362260004
273 1 10.493857448382002 18.00053300595 0.806152425045
274 1 18.245970579342004 18.0847087245 0.17256837918408
275 1 19.19499168048 19.042868903652 0.6978721268178001
276 1 19.315953756528 18.159285274152 0.9384515587392
277 1 20.146480541814 17.998002506088003 0.6904646635854
278 1 19.767114694734 18.568766160912002 0.13282635602082
279 1 20.658394389930002 18.849798038148002 0.506445040563
280 1 19.952008490436 18.938972016756 1.0877196807642
281 1 19.933312069968 19.409624077866003 0.16132333971468
282 1 1.1381372763618 20.588356009452 0.3816286577004
283 1 0.9549437256084 20.008432363392 1.1466991494486
284 1 0.9393571012518 20.855794292388 1.4211412704324002
285 1 0.020101600767402 20.357390385684003 1.3895288440572002
286 1 0.361851023655 20.221454442684 0.3702602302212
287 1 2.191120095384 19.635152263914 1.246229355591
288 1 1.4973365034672 19.72273683765 0.29681508587940003
289 1 1.7861397339984002 20.32472393292 0.8494950776400001
290 1 2.4522007588320003 20.014455371328 0.4002707037912
291 1 4.206987390408001 20.279195848626 0.17068911705516002
292 1 3.135895812456 19.838826132972 0.9520054179174
293 1 3.469043438916 20.730294047166 0.670822965483
294 1 4.31000592198 20.89994210403 0.7571171934216
295 1 3.941891388336 19.541670161574004 0.6255751183638
296 1 5.584269451662 19.849512789414 0.13256013070476
297 1 5.161445929266 20.49851280774 0.5799341026710001
298 1 5.571951563904 20.74121074905 1.4616982818570001
299 1 5.624318271792 19.803106349796003 1.1490121518018002
300 1 4.665760741422 19.922018930088 1.016539438365
301 1 7.333200381078 19.940631697668 0.46437809451
302 1 6.211896157104 20.397648338034 0.504155042754
303 1 6.5467586677680005 19.620429355626 0.9030517478598
304 1 6.962074343466001 20.62754738748 0.9638736714024
305 1 7.577864165256001 20.778143499102 0.17425022049732003
306 1 8.126836242756001 19.6427437635 0.9626042388270001
307 1 8.29857562182 20.151290582874 0.35069172839580004
308 1 7.881963326358 20.611925210646003 0.9548266115652
309 1 8.835648076002 20.213277372882 1.0394164119108
310 1 9.361155518418 19.921998016866002 0.22315244402880002
311 1 10.13653413729 19.546187417526003 0.20847575396141999
312 1 10.172483965908 20.450161438476 0.49849174223639997
313 1 9.605254645602 20.86355309775 1.3596940415520002
314 1 9.218841042708 20.82360884373 0.5179703172072
315 1 9.763316777478002 19.908258030012 1.3069027952574
316 1 10.976450959254 19.563231693456 0.5664220699368001
317 1 18.419173883946 19.863294602712 0.11284565458980002
318 1 20.432238807222003 20.636560986162 0.6375374813478
319 1 19.614490000578 19.981245174792 0.7279746185646001
320 1 20.583399575838 19.729115370360002 0.7668794854512
321 1 0.36869173857119997 0.5087413123386 2.0978680384860002
322 1 1.2397107042936 0.9093006185934001 1.5509454567420002
323 1 1.3532193080208 0.2281674346644 2.267453355684
324 1 1.9594789745454002 1.4338711486638 1.8675235374114
325 1 1.7162184675636003 0.9077404922322001 2.8637520545700004
326 1 2.5205033418840004 0.8562144958686 2.36706303207
327 1 3.092710009026 0.1914689126988 1.7870703723774002
328 1 3.8193608206380003 0.8445741965034 2.16493674144
329 1 3.0966626079840003 0.3503194730442 2.728506247896
330 1 3.0517200939060003 1.1824482111354 1.6154899338006001
331 1 4.496802820884 0.4155582690732 1.5459367400730002
332 1 4.491490862496 0.5785705605966001 2.726582231472
333 1 4.784861540712 1.196570909952 2.0121175543194
334 1 5.695360486926 1.001973379242 2.3454178473000002
335 1 5.1528924214680005 0.2621221419036 2.17330203024
336 1 5.693729255610001 0.2356878292956 2.980531486218
337 1 7.334580653730001 1.3594200783438002 2.21115496206
338 1 6.725399410092 0.7144730424414 2.616432291198
339 1 7.084333039278 0.6703963357542 1.6219019276658
340 1 6.489749224596 1.2748302779982001 1.8327364839366
341 1 6.169797841218 0.2833762494222 2.0642897692428
342 1 8.391869505162001 0.16942491278526 2.539534373904
343 1 8.009994071442 0.6557654456430001 1.8061766919966002
344 1 7.533298089174001 0.41356105637220003 2.505634041042
345 1 3.8952130768320004 1.7543830063914 2.398579257624
346 1 4.643613639324 2.102573513436 1.7789957773632001
347 1 5.549428023810001 1.7316105989556003 1.7772223361376
348 1 5.2191245955420005 1.807048773354 2.7338182062840004
349 1 6.858344762346 2.2268607917820002 1.8316573616814
350 1 6.198929959464 1.5932194436928 2.65064632239
351 1 8.232343447746 1.4947579031946001 1.7732822851128003
352 1 2.675449403682 11.383401346152 1.5518468166102
353 1 1.5527941855668 11.926245849606001 2.3071884774840004
354 1 3.682525609092 11.884335752718002 2.2640026740540002
355 1 4.675589955762 11.546587217418 1.6487900571912
356 1 5.5877619597359995 11.325199849326001 1.9533451265328001
357 1 1.0035544188252 12.318034150554 1.5361681740768
358 1 0.9328384499544 13.064029692516 2.316306642276
359 1 0.21426850732320002 13.369174514718 1.8386716563402001
360 1 1.8603503022654 12.877922929938 2.090569324008
361 1 2.366791160184 12.17756003838 1.6810758893148
362 1 2.617582518408 12.129062276562001 2.671956895608
363 1 2.7431036768520003 12.999470576202 2.411587281708
364 1 1.7174356170840002 12.582105404748 2.964470131722
365 1 4.396837619724001 12.479045046732 2.0623720267854
366 1 4.265962676448 12.259351649622 2.961897805416
367 1 3.2676700242780004 12.508720908750002 1.7403418691406
368 1 3.6910582036680006 13.14019564704 2.251224695412
369 1 5.148458818404 11.966231930070002 2.402740988802
370 1 4.493247573144 13.405730826773999 1.991346542229
371 1 5.241961833966001 12.797365198794001 1.8540575137656001
372 1 5.095171928748 12.855002038626 2.722817851512
373 1 7.151046217458 12.191843769006 1.55688481179
374 1 7.041000843294 12.493872521130001 2.539095196242
375 1 6.282980198682 12.144224362512 2.0837369743806002
376 1 6.9156469906260005 13.108763074374 1.8589742122578
377 1 6.070794648270001 13.141387700694 2.093978179194
378 1 8.853047876706 13.273517437290002 1.6571720765688
379 1 7.7573205232380005 13.225458853134 2.392242551358
380 1 7.939662905856 12.60283040775 1.5993114652614002
381 1 1.4387271988122001 13.858041992190001 2.257958752896
382 1 0.7622785766112 14.192988155742 1.8553102157634
383 1 1.3243005046392 14.885529502272 2.26814349201
384 1 0.5054056534296 13.944957342822 2.700377964306
385 1 2.333685529758 13.673796506370001 1.6999479808476001
386 1 2.0300966512728 13.653447941364002 2.752640106084
387 1 2.118258429936 14.405090053266003 2.26898002089
388 1 2.893992573582 14.46912633903 1.7538288060084
389 1 2.8974850816560003 13.903005419490002 2.53635556416
390 1 3.1719711204060004 13.567682817942002 1.6272097034094
391 1 3.7187473095960004 14.388589521108 1.9819627795176002
392 1 3.684826063512 14.148024728442 2.8985516559780002
393 1 4.4252377752 13.522091993982 2.8744596242340004
394 1 3.0455297801940002 14.767829888856001 2.665118272014
395 1 5.6020247771400005 13.783528182204 1.4975979187422
396 1 4.862052243114 14.262587358558 1.8642213396576002
397 1 4.556656462248 14.494389511206002 2.7986282812620003
398 1 5.778427804710001 14.487362668614002 2.009467849092
399 1 5.2638579774 13.696131827466 2.418948735852
400 1 5.34761543151 14.864762672826002 2.813016577998
401 1 5.941090845425999 14.196689796036003 2.824978940982
402 1 6.741251632368001 13.75054803111 2.77466172885
403 1 7.3261735384860005 14.175839313702001 2.111796244338
404 1 6.633694931622 14.720231395584001 2.5593601083600004
405 1 6.528396858852 14.0557765062 1.7859201451674003
406 1 8.129429482284001 13.887529635209999 2.883389570028
407 1 7.93071204684 13.656208486668 1.627623785205
408 1 8.54765209584 14.11297416837 2.069018248737
409 1 8.925240319050001 14.930848454346 1.728435971856
410 1 8.119412048946 14.792507490816 2.514647639724
411 1 7.997885315904 14.597491695666001 1.4969140563828
412 1 9.457126294176 14.203549332852003 1.8150418068024001
413 1 9.170385107334 14.660147708778002 2.545013638068
414 1 20.633382176418003 14.348749833198 1.661335899069
415 1 20.47331237523 13.931154616302 2.623187261904
416 1 0.3586554833334 14.945404056858 2.219980341744
417 1 0.9310336388958 16.06668736761 1.6450424078088002
418 1 0.8482277363868 15.822400021428 2.509398421002
419 1 1.663699093155 15.337025052030002 2.94897343422
420 1 2.163765601008 14.970374443926001 1.5323075932956
421 1 1.6595227227216 15.635393990304 1.8747135031350002
422 1 1.8014419385358003 16.202351438724 2.761653704766
423 1 2.424595305792 16.35393047178 2.176041662322
424 1 2.376243936528 15.392382350664 2.432563243374
425 1 4.402651495440001 15.110367551994 2.1679064189640003
426 1 3.292619498124 16.162302618594 2.0084891103024
427 1 3.373470014376 15.253037552478002 1.9025740974834002
428 1 3.9150178980660004 15.912598747914 2.546728522272
429 1 3.8549342112600002 15.077094615792001 2.957485115574
430 1 3.056864746518 16.023125126184 2.878014871974
431 1 5.232655450176 15.213595215786 1.8666326341542
432 1 4.947043577322001 16.039939356672 2.142956945118
433 1 4.701564177486 15.523696471602001 2.9213470679580005
434 1 5.81523507543 15.633386320992 2.416062711216
435 1 4.561675635528 16.430284645302002 2.8505767247100002
436 1 7.333514079408 15.107837052132 2.154856568436
437 1 6.377738007564001 15.373957802082 1.8344388202074
438 1 6.441606987552 16.230897986754 2.076411072714
439 1 6.748403954292 15.576251398488 2.723779859724
440 1 7.222966787916 15.757966384446 1.6182881229041999
441 1 7.721412521064 15.89498981499 2.534724332844
442 1 8.682981555402 15.467021639982002 2.5544873276340003
443 1 8.608593224748 16.42263040605 2.143207903782
444 1 8.197711152114 15.575854047270001 1.8025377913686
445 1 9.830134521768 15.277924286658001 2.224246639032
446 1 9.150747591876 15.794041692396 1.7196942450600001
447 1 9.325414822019999 16.050605099892 2.532925795752
448 1 10.666307876994 15.172960825440002 1.8270480875526003
449 1 11.143422123702 16.300120751574003 1.6252689564078002
450 1 19.683691852176 15.934013887242001 1.8140316981798
451 1 20.853012833862003 15.775177966152 1.8520561184202002
452 1 20.288063054754 15.105076506828 2.316013857168
453 1 20.887415084052 15.670026285936 2.779931860794
454 1 20.251464916254 16.41572904279 2.437896114984
455 1 1.0130490216132 16.932097407192 2.732396107188
456 1 0.9457147207398001 17.054335189782 1.7998964514300002
457 1 0.25338250642980004 16.522344648546003 2.39916482784
458 1 0.451328243982 17.704861873314 1.9978714674930003
459 1 1.3509188536008 17.673889391532 2.27169873975
460 1 0.3546401447094 17.529379027512 2.867077256868
461 1 1.564444941543 16.577806513290003 2.0497383493752004
462 1 2.163451902678 17.290257247164 2.0861168990442
463 1 2.228889374316 17.887371561708 2.816090821632
464 1 2.851120468482 16.98028147068 2.855993249208
465 1 4.105746482706 16.593261384348 1.8628347930390001
466 1 3.235651881396 17.018469014052002 1.9881802804182
467 1 3.7112603761200003 16.68279088773 2.7216885375240003
468 1 4.08090157497 17.523167800578 2.171189794818
469 1 3.0146827777440004 17.809135198206 2.417380244202
470 1 5.7684312845940005 17.703962604768 2.080991068332
471 1 5.700442399872 16.603717995348003 2.375093709318
472 1 5.033875275066 17.044736020884002 2.098474521924
473 1 4.49592446556 17.414711831286002 2.936279108466
474 1 5.4946981218360005 17.401515588204 2.955184661154
475 1 6.240317225802 17.076921469542 1.6926262618254
476 1 7.079209299888001 16.873247600484003 1.7364938362926001
477 1 7.287128553012 17.647350512814 2.3647207512060002
478 1 6.534838131228 17.086332419442 2.58037789647
479 1 7.119509078682 16.44542581803 2.665745668674
480 1 8.67532731615 17.1216548514 1.4986812236418001
481 1 7.860192662256001 16.49185317087 1.5853205197434002
482 1 7.823782742754001 17.02064398914 2.26124212875
483 1 8.107345119852 17.908012911822002 2.152472461128
484 1 8.872706305386 17.444994176742 2.262036831186
485 1 8.195515263804001 16.476711998142 2.965620358932
486 1 9.525700749114 16.751762693886 1.9673988117168002
487 1 10.433522802912 16.792292518122 1.6310138184912002
488 1 10.035376882476001 16.929922432104 2.70920334399
489 1 10.652714282694 17.674893226188 1.8350536689341999
490 1 19.98331558377 17.769797427624002 1.5379562545578003
491 1 19.648411246662 16.863543865476 1.7752313974032001
492 1 20.666215934958 17.164589696166 1.9270111973904
493 1 19.763559446994 17.676503544282 2.405480620884
494 1 0.34804620581280005 18.760163968656 2.0961322410600003
495 1 1.1328859663176 18.350118424902 1.7778811026306
496 1 1.2350303252100001 19.336699672752 2.114598616086
497 1 0.6132028562286 19.379299905966 2.821277300688
498 1 0.7652858979348 18.420700549152002 2.883786921246
499 1 1.9886361886578001 18.100686426108002 1.7151142494420002
500 1 1.9604702612682001 19.01001423189 1.790558697807
501 1 2.6840029114800004 18.595033167744003 2.0731674319818
502 1 1.6404937820238 18.607183749726 2.539785332568
503 1 2.992953940086 18.552349281642 2.966791499364
504 1 3.0019884519900004 19.348243771296 1.6527071036718
505 1 3.430960461654 18.257493764664 1.7558071968096
506 1 3.805704486672 18.998449220124 2.1342152183220002
507 1 4.29212511717 18.427643738856002 1.7046869169528
508 1 3.915310683174 18.225517448226 2.738147243238
509 1 4.93897107363 18.016824405888002 2.1978541528680005
510 1 5.713136725626001 18.659550457614 2.119429570368
511 1 5.057068038264 19.09711780152 1.594267196115
512 1 4.686673963422 18.69767526132 2.6347313604480003
513 1 5.352780997344 19.290586018242 2.72300607051
514 1 6.393276531510001 18.021278922174 2.75625809349
515 1 6.502569029682 18.26236654539 1.9674490034496002
516 1 6.741879029028 19.133234935914 1.6464833288046001
517 1 6.211603371996 18.969358928322002 2.715707356032
518 1 7.131847879662001 18.747699688344003 2.478028588002
519 1 8.755278563856 18.264332388258 2.7720684893220002
520 1 7.5044587560360005 18.39819792228 1.6714976336387999
521 1 7.7745111917220004 19.246689165264 1.7025077592204
522 1 8.371688245932 18.63744518196 1.8105350074614002
523 1 7.974044242824001 18.796322929494004 2.613901791336
524 1 8.805177511548 19.202499527178002 2.595832767528
525 1 9.275076696666 18.231665935494 2.1109388022360003
526 1 10.238569747428 18.201237197484 2.5535880590880002
527 1 9.634177631628 19.167658099326 1.887763353663
528 1 10.473362490822002 18.923433492810002 1.9480645379777999
529 1 20.60914375212 18.067371663462 2.5304162091120004
530 1 20.607491607582 18.385106245308 1.5236913458316002
531 1 20.227121925846 19.131478225266 1.9979634856698003
532 1 0.9501106800042001 20.462583892344 2.7135742073880005
533 1 0.06910063160352001 20.630140627008 2.375783845644