LAMMPS (2 Aug 2023)
Processor partition = 10
# 2d Lennard-Jones melt

units		lj
dimension	2
atom_style	atomic
boundary 	p p p

read_data       lammp.xyz.init
Reading data file ...
  orthogonal box = (0 0 -0.5) to (37.712362 37.712362 0.5)
  2 by 2 by 1 MPI processor grid
  reading atoms ...
  1024 atoms
  read_data CPU = 0.005 seconds

variable temp_val world 1.00e-02 1.4650e-02 1.9741e-02 2.6601e-02 3.5846e-02 4.8303e-02 6.5089e-02 8.7710e-02 1.1819e-01 1.5926e-01 2.1461e-01 2.8920e-01 3.8970e-01 5.2513e-01 7.0762e-01 9.5354e-01

variable Ntot equal 200000

#velocity        all create ${temp_val} 14903 loop geom

# enforce 2D dynamics
fix             enforce2d all enforce2d

pair_style	table linear 301
pair_coeff	1 1 ljgp.tab LJGP 2.5
WARNING: 1 of 301 force values in table LJGP are inconsistent with -dE/dr.
WARNING:  Should only be flagged at inflection points (../pair_table.cpp:466)

neighbor	0.3 bin
neigh_modify	every 20 delay 0 check no

timestep 0.0025
# TBEG=1.0 TEND=1.0 TDAMP=0.5
fix             1 all nvt temp ${temp_val} ${temp_val} $(100.0*dt)
fix             1 all nvt temp 2.1461e-01 ${temp_val} $(100.0*dt)
fix             1 all nvt temp 2.1461e-01 2.1461e-01 $(100.0*dt)
fix             1 all nvt temp 2.1461e-01 2.1461e-01 0.25

# output configuration every 500 steps
#dump 1 all atom 1000 dump.lammps.out
variable rep world 0 1 2 3 4 5 6 7 8 9 10 11 12 13 14 15
dump 1 all atom 40000 dump.temper.${rep}
dump 1 all atom 40000 dump.temper.10

thermo          2000
# run 5000 steps
#run             ${Ntot}

temper ${Ntot} 400 ${temp_val} 1 3847 58382
temper 200000 400 ${temp_val} 1 3847 58382
temper 200000 400 2.1461e-01 1 3847 58382
Generated 0 of 0 mixed pair_coeff terms from geometric mixing rule
Neighbor list info ...
  update: every = 20 steps, delay = 0 steps, check = no
  max neighbors/atom: 2000, page size: 100000
  master list distance cutoff = 2.8
  ghost atom cutoff = 2.8
  binsize = 1.4, bins = 27 27 1
  1 neighbor lists, perpetual/occasional/extra = 1 0 0
  (1) pair table, perpetual
      attributes: half, newton on
      pair build: half/bin/atomonly/newton
      stencil: half/bin/2d
      bin: standard
Per MPI rank memory allocation (min/avg/max) = 2.551 | 2.551 | 2.551 Mbytes
   Step          Temp          E_pair         E_mol          TotEng         Press     
         0   0             -1.5184298      0             -1.5184298     -2.8069358    
      2000   7.5736442e-27 -1.5184298      0             -1.5184298     -2.8069358    
      4000   0.151049      -1.5717154      0             -1.4208139     -2.1132211    
      6000   0.21386617    -2.5450076      0             -2.3313503     -0.11997967   
      8000   0.21104086    -2.7827127      0             -2.571878      -0.015599991  
     10000   0.22205179    -2.8865332      0             -2.6646982      0.015988391  
     12000   0.29264596    -2.7887849      0             -2.4964247     -0.12788015   
     14000   0.29175709    -2.8592337      0             -2.5677615     -0.079664935  
     16000   0.28870287    -2.8951242      0             -2.6067033      0.081765225  
     18000   0.28280654    -2.9089243      0             -2.6263939     -0.045906687  
     20000   0.21111479    -3.0553946      0             -2.844486       0.036243472  
     22000   0.1559186     -3.1416329      0             -2.9858666      0.12759289   
     24000   0.045734268   -3.2816084      0             -3.2359188     -0.012299256  
     26000   0.020496242   -3.3194735      0             -3.2989973     -0.0091566473 
     28000   0.013985384   -3.3240108      0             -3.3100391     -0.16625808   
     30000   0.015100985   -3.3237279      0             -3.3086417     -0.067450206  
     32000   0.014747201   -3.3244256      0             -3.3096928     -0.011487084  
     34000   0.014711584   -3.3241827      0             -3.3094855     -0.10638347   
     36000   0.015175067   -3.3240027      0             -3.3088425     -0.1095008    
     38000   0.014598237   -3.3246529      0             -3.310069      -0.023059633  
     40000   0.013996408   -3.325002       0             -3.3110192     -0.098423171  
     42000   0.014245199   -3.3252375      0             -3.3110062     -0.10512893   
     44000   0.014622013   -3.3259801      0             -3.3113724     -0.11610882   
     46000   0.015298394   -3.3258612      0             -3.3105778     -0.042127586  
     48000   0.014377675   -3.3261492      0             -3.3117856     -0.093302341  
     50000   0.015148258   -3.326519       0             -3.3113855     -0.061834389  
     52000   0.014505659   -3.3256178      0             -3.3111264     -0.11019504   
     54000   0.014664545   -3.3256135      0             -3.3109633     -0.047432013  
     56000   0.014855103   -3.3261406      0             -3.3113        -0.05922876   
     58000   0.014533433   -3.3253744      0             -3.3108552     -0.14438892   
     60000   0.014462328   -3.3254575      0             -3.3110092     -0.10738565   
     62000   0.014109999   -3.3245055      0             -3.3104093     -0.10030929   
     64000   0.015061029   -3.3260492      0             -3.3110029     -0.053307345  
     66000   0.014164722   -3.3245552      0             -3.3104043     -0.12932283   
     68000   0.015431335   -3.3259978      0             -3.3105816     -0.096162857  
     70000   0.014489602   -3.3250943      0             -3.3106188     -0.085821751  
     72000   0.013503197   -3.3258961      0             -3.3124061     -0.070188236  
     74000   0.015013594   -3.3250999      0             -3.3101009     -0.093300485  
     76000   0.013729055   -3.3255727      0             -3.3118571     -0.094020964  
     78000   0.014824237   -3.3244183      0             -3.3096086     -0.098220846  
     80000   0.014699985   -3.3257474      0             -3.3110617     -0.074215775  
     82000   0.014684054   -3.3255724      0             -3.3109027     -0.13301258   
     84000   0.01394451    -3.3256006      0             -3.3116697     -0.075511373  
     86000   0.015027081   -3.3251011      0             -3.3100887     -0.072498509  
     88000   0.01455502    -3.3266432      0             -3.3121024     -0.12869523   
     90000   0.014100231   -3.3256942      0             -3.3116078     -0.12125262   
     92000   0.01439232    -3.3258779      0             -3.3114997     -0.089301285  
     94000   0.015473597   -3.3255277      0             -3.3100692     -0.084941417  
     96000   0.014274143   -3.3258033      0             -3.3115431     -0.070792856  
     98000   0.014188081   -3.3251799      0             -3.3110057     -0.09152176   
    100000   0.013969972   -3.3259364      0             -3.3119801     -0.098448309  
    102000   0.015185913   -3.3258547      0             -3.3106836     -0.10400765   
    104000   0.014450652   -3.3261986      0             -3.3117621     -0.071973936  
    106000   0.014294225   -3.3254096      0             -3.3111294     -0.11432271   
    108000   0.013813238   -3.3251442      0             -3.3113444     -0.0825742    
    110000   0.014549012   -3.3252233      0             -3.3106885     -0.085063406  
    112000   0.014920725   -3.3252284      0             -3.3103222     -0.13149546   
    114000   0.014659177   -3.3255932      0             -3.3109484     -0.1121504    
    116000   0.015411495   -3.3254709      0             -3.3100745     -0.090121309  
    118000   0.014446811   -3.3248761      0             -3.3104434     -0.13301042   
    120000   0.015111288   -3.3248865      0             -3.30979       -0.074151132  
    122000   0.014467856   -3.3258622      0             -3.3114085     -0.084614726  
    124000   0.014426883   -3.3266601      0             -3.3122473     -0.10329342   
    126000   0.01412942    -3.3259989      0             -3.3118833     -0.078422348  
    128000   0.014575543   -3.3247845      0             -3.3102232     -0.047654236  
    130000   0.015779932   -3.3247358      0             -3.3089713     -0.10860345   
    132000   0.014436229   -3.3259111      0             -3.311489      -0.084144306  
    134000   0.014967769   -3.3254146      0             -3.3104614     -0.088845458  
    136000   0.01429032    -3.3256748      0             -3.3113985     -0.077171666  
    138000   0.014571347   -3.3253871      0             -3.31083       -0.080366968  
    140000   0.014326613   -3.3253977      0             -3.3110851     -0.086507173  
    142000   0.014507239   -3.325614       0             -3.3111209     -0.13728562   
    144000   0.013983372   -3.3254816      0             -3.3115119     -0.10612537   
    146000   0.014521779   -3.3253216      0             -3.310814      -0.070327843  
    148000   0.015114439   -3.3245429      0             -3.3094432     -0.14139439   
    150000   0.014860796   -3.3254046      0             -3.3105583     -0.096121272  
    152000   0.014808447   -3.3256799      0             -3.310886      -0.10031628   
    154000   0.014445145   -3.3258327      0             -3.3114017     -0.062099335  
    156000   0.014327794   -3.3258526      0             -3.3115388     -0.067833438  
    158000   0.013968368   -3.3255586      0             -3.3116039     -0.091406549  
    160000   0.014809602   -3.3257735      0             -3.3109784     -0.11168383   
    162000   0.014244433   -3.3259458      0             -3.3117153     -0.10413479   
    164000   0.014331074   -3.3254572      0             -3.3111401     -0.093254738  
    166000   0.01494504    -3.325465       0             -3.3105345     -0.13145974   
    168000   0.01451626    -3.3294096      0             -3.3149075     -0.1347202    
    170000   0.014888679   -3.3290003      0             -3.3141262     -0.081492766  
    172000   0.015094131   -3.3284231      0             -3.3133437     -0.070080021  
    174000   0.01507055    -3.3292238      0             -3.3141679     -0.10133792   
    176000   0.015035246   -3.3290198      0             -3.3139993     -0.11684721   
    178000   0.014166434   -3.3284482      0             -3.3142956     -0.093581215  
    180000   0.015081959   -3.3299746      0             -3.3149074     -0.071399751  
    182000   0.014287429   -3.3287469      0             -3.3144734     -0.11408934   
    184000   0.015085856   -3.3296309      0             -3.3145598     -0.092149081  
    186000   0.014670777   -3.3295523      0             -3.3148958     -0.092674647  
    188000   0.014096406   -3.3292599      0             -3.3151773     -0.09364157   
    190000   0.014346868   -3.3295089      0             -3.315176      -0.059663529  
    192000   0.01501891    -3.3282171      0             -3.3132129     -0.085082695  
    194000   0.014463485   -3.3286073      0             -3.3141579     -0.10220675   
    196000   0.015533041   -3.3295365      0             -3.3140187     -0.11874536   
    198000   0.01399106    -3.3289988      0             -3.3150214     -0.075989495  
    200000   0.014866928   -3.3288981      0             -3.3140457     -0.12186869   
Loop time of 13.4519 on 4 procs for 200000 steps with 1024 atoms

Performance: 3211447.600 tau/day, 14867.813 timesteps/s, 15.225 Matom-step/s
100.0% CPU use with 4 MPI tasks x no OpenMP threads

MPI task timing breakdown:
Section |  min time  |  avg time  |  max time  |%varavg| %total
---------------------------------------------------------------
Pair    | 4.5534     | 4.9886     | 5.9642     |  25.5 | 37.09
Neigh   | 0.31291    | 0.37753    | 0.47795    |  10.8 |  2.81
Comm    | 3.2288     | 4.2573     | 4.6542     |  28.9 | 31.65
Output  | 0.0026356  | 0.0028185  | 0.0030091  |   0.3 |  0.02
Modify  | 1.2163     | 1.2955     | 1.3923     |   6.2 |  9.63
Other   |            | 2.53       |            |       | 18.81

Nlocal:            256 ave         314 max         213 min
Histogram: 1 0 1 0 1 0 0 0 0 1
Nghost:         129.75 ave         146 max         115 min
Histogram: 2 0 0 0 0 0 0 0 1 1
Neighs:        3372.25 ave        4111 max        2982 min
Histogram: 1 1 1 0 0 0 0 0 0 1

Total # of neighbors = 13489
Ave neighs/atom = 13.172852
Neighbor list builds = 10000
Dangerous builds not checked
Total wall time: 0:00:13
