LAMMPS (2 Aug 2023)
Processor partition = 15
# 2d Lennard-Jones melt

units		lj
dimension	2
atom_style	atomic
boundary 	p p p

read_data       lammp.xyz.init
Reading data file ...
  orthogonal box = (0 0 -0.5) to (37.712362 37.712362 0.5)
  2 by 2 by 1 MPI processor grid
  reading atoms ...
  1024 atoms
  read_data CPU = 0.008 seconds

variable temp_val world 1.00e-02 1.4650e-02 1.9741e-02 2.6601e-02 3.5846e-02 4.8303e-02 6.5089e-02 8.7710e-02 1.1819e-01 1.5926e-01 2.1461e-01 2.8920e-01 3.8970e-01 5.2513e-01 7.0762e-01 9.5354e-01

variable Ntot equal 200000

#velocity        all create ${temp_val} 14903 loop geom

# enforce 2D dynamics
fix             enforce2d all enforce2d

pair_style	table linear 301
pair_coeff	1 1 ljgp.tab LJGP 2.5
WARNING: 1 of 301 force values in table LJGP are inconsistent with -dE/dr.
WARNING:  Should only be flagged at inflection points (../pair_table.cpp:466)

neighbor	0.3 bin
neigh_modify	every 20 delay 0 check no

timestep 0.0025
# TBEG=1.0 TEND=1.0 TDAMP=0.5
fix             1 all nvt temp ${temp_val} ${temp_val} $(100.0*dt)
fix             1 all nvt temp 9.5354e-01 ${temp_val} $(100.0*dt)
fix             1 all nvt temp 9.5354e-01 9.5354e-01 $(100.0*dt)
fix             1 all nvt temp 9.5354e-01 9.5354e-01 0.25

# output configuration every 500 steps
#dump 1 all atom 1000 dump.lammps.out
variable rep world 0 1 2 3 4 5 6 7 8 9 10 11 12 13 14 15
dump 1 all atom 40000 dump.temper.${rep}
dump 1 all atom 40000 dump.temper.15

thermo          2000
# run 5000 steps
#run             ${Ntot}

temper ${Ntot} 400 ${temp_val} 1 3847 58382
temper 200000 400 ${temp_val} 1 3847 58382
temper 200000 400 9.5354e-01 1 3847 58382
Generated 0 of 0 mixed pair_coeff terms from geometric mixing rule
Neighbor list info ...
  update: every = 20 steps, delay = 0 steps, check = no
  max neighbors/atom: 2000, page size: 100000
  master list distance cutoff = 2.8
  ghost atom cutoff = 2.8
  binsize = 1.4, bins = 27 27 1
  1 neighbor lists, perpetual/occasional/extra = 1 0 0
  (1) pair table, perpetual
      attributes: half, newton on
      pair build: half/bin/atomonly/newton
      stencil: half/bin/2d
      bin: standard
Per MPI rank memory allocation (min/avg/max) = 2.551 | 2.551 | 2.551 Mbytes
   Step          Temp          E_pair         E_mol          TotEng         Press     
         0   0             -1.5184298      0             -1.5184298     -2.8069358    
      2000   1.6014018e-26 -1.5184298      0             -1.5184298     -2.8069358    
      4000   0.39459619    -1.570196       0             -1.1759851     -1.7442406    
      6000   0.398884      -2.4731628      0             -2.0746683     -0.035003639  
      8000   0.40581871    -2.6071383      0             -2.2017159      0.05834241   
     10000   0.38280533    -2.6364455      0             -2.254014      -0.04006353   
     12000   0.38861337    -2.6424946      0             -2.2542607     -0.14113362   
     14000   0.40597124    -2.7506591      0             -2.3450843      0.013298316  
     16000   0.38168528    -2.7820283      0             -2.4007158      0.019884294  
     18000   0.39336853    -2.7912959      0             -2.3983116     -0.033912816  
     20000   0.37503354    -2.7554128      0             -2.3807455      0.0039213171 
     22000   0.28745955    -2.996718       0             -2.7095391      0.23899177   
     24000   0.08494253    -3.2738305      0             -3.188971      -0.091036015  
     26000   0.034235395   -3.3234585      0             -3.2892566     -0.11001307   
     28000   0.010290137   -3.3491619      0             -3.3388818     -0.17100279   
     30000   0.010142905   -3.3543213      0             -3.3441883     -0.16093891   
     32000   0.010456142   -3.3563365      0             -3.3458906     -0.18953667   
     34000   0.0098751177  -3.3553312      0             -3.3454658     -0.12862466   
     36000   0.010285888   -3.3585802      0             -3.3483043     -0.10516163   
     38000   0.0099629731  -3.3570966      0             -3.3471433     -0.12159881   
     40000   0.010153453   -3.3580358      0             -3.3478923     -0.082035072  
     42000   0.010463421   -3.3583929      0             -3.3479397     -0.088307091  
     44000   0.010106042   -3.3569151      0             -3.3468189     -0.14421347   
     46000   0.009586191   -3.3581416      0             -3.3485647     -0.17133927   
     48000   0.0099804724  -3.3577588      0             -3.3477881     -0.15964218   
     50000   0.0097962729  -3.3578511      0             -3.3480644     -0.13270118   
     52000   0.0098329878  -3.3580322      0             -3.3482088     -0.10800844   
     54000   0.0097739995  -3.3577565      0             -3.347992      -0.11055028   
     56000   0.010008478   -3.3578424      0             -3.3478437     -0.075324867  
     58000   0.0094137666  -3.3570427      0             -3.3476382     -0.14215198   
     60000   0.010059964   -3.3580585      0             -3.3480084     -0.16201994   
     62000   0.0097407489  -3.357086       0             -3.3473547     -0.14606132   
     64000   0.0099020272  -3.3573736      0             -3.3474812     -0.15329535   
     66000   0.0097663082  -3.3582997      0             -3.3485429     -0.12705233   
     68000   0.010046652   -3.3575146      0             -3.3474778     -0.1241312    
     70000   0.0097844948  -3.3581124      0             -3.3483374     -0.12922617   
     72000   0.010232598   -3.3574813      0             -3.3472587     -0.089851558  
     74000   0.0097822922  -3.3575665      0             -3.3477938     -0.080750088  
     76000   0.010158582   -3.3579374      0             -3.3477887     -0.1254644    
     78000   0.0094070694  -3.3572985      0             -3.3479006     -0.15738596   
     80000   0.0099636202  -3.3581231      0             -3.3481692     -0.16545952   
     82000   0.010243821   -3.3573031      0             -3.3470693     -0.094496627  
     84000   0.009675399   -3.358251       0             -3.3485851     -0.1188709    
     86000   0.0094617881  -3.3573372      0             -3.3478847     -0.12174731   
     88000   0.009047907   -3.3571133      0             -3.3480742     -0.099667343  
     90000   0.0097891048  -3.3578335      0             -3.348054      -0.12874514   
     92000   0.0098925152  -3.3575117      0             -3.3476289     -0.11114247   
     94000   0.010500346   -3.3579206      0             -3.3474305     -0.11093704   
     96000   0.010210665   -3.3578807      0             -3.34768       -0.11773243   
     98000   0.0099688571  -3.3570866      0             -3.3471274     -0.13959662   
    100000   0.0097926485  -3.3584592      0             -3.3486761     -0.1418299    
    102000   0.010074214   -3.3568234      0             -3.3467591     -0.087122248  
    104000   0.0095418753  -3.3582212      0             -3.3486887     -0.097803248  
    106000   0.0098369435  -3.3568333      0             -3.3470059     -0.14041215   
    108000   0.010143471   -3.357401       0             -3.3472674     -0.090448672  
    110000   0.010264808   -3.358305       0             -3.3480502     -0.14129776   
    112000   0.0099499389  -3.3570824      0             -3.3471422     -0.10214759   
    114000   0.0094118821  -3.3581332      0             -3.3487305     -0.10594479   
    116000   0.01029221    -3.3569054      0             -3.3466232     -0.12288135   
    118000   0.010487009   -3.3577419      0             -3.3472652     -0.11283004   
    120000   0.0099729549  -3.3575468      0             -3.3475836     -0.11516003   
    122000   0.0097295472  -3.3578235      0             -3.3481034     -0.083173915  
    124000   0.0098239524  -3.3580357      0             -3.3482213     -0.12834726   
    126000   0.010178338   -3.356908       0             -3.3467396     -0.16315549   
    128000   0.010298522   -3.3578877      0             -3.3475993     -0.14283661   
    130000   0.0096478455  -3.3570221      0             -3.3473837     -0.096932787  
    132000   0.010269689   -3.3572637      0             -3.347004      -0.097668781  
    134000   0.010208626   -3.3581755      0             -3.3479769     -0.098821237  
    136000   0.0097349672  -3.3570739      0             -3.3473484     -0.086693753  
    138000   0.010545253   -3.3579438      0             -3.3474089     -0.10591543   
    140000   0.0097471296  -3.3574231      0             -3.3476855     -0.13972016   
    142000   0.010299587   -3.3577361      0             -3.3474465     -0.14952578   
    144000   0.009933189   -3.3581092      0             -3.3481857     -0.1400248    
    146000   0.0097347341  -3.3570688      0             -3.3473435     -0.13291637   
    148000   0.010137513   -3.3583724      0             -3.3482448     -0.1184881    
    150000   0.010749904   -3.3575922      0             -3.3468528     -0.063541436  
    152000   0.010193392   -3.3578252      0             -3.3476418     -0.095222509  
    154000   0.010152041   -3.357724       0             -3.3475819     -0.1330967    
    156000   0.0094864182  -3.3569707      0             -3.3474935     -0.1216622    
    158000   0.0099205204  -3.3581218      0             -3.348211      -0.156109     
    160000   0.0096253816  -3.3563685      0             -3.3467525     -0.099651661  
    162000   0.010359226   -3.3577516      0             -3.3474025     -0.089668154  
    164000   0.0099557922  -3.3577459      0             -3.3477998     -0.10270098   
    166000   0.010170935   -3.3573755      0             -3.3472145     -0.097648034  
    168000   0.0098709906  -3.3583073      0             -3.348446      -0.10242174   
    170000   0.010590166   -3.3576624      0             -3.3470826     -0.082191848  
    172000   0.01057035    -3.3578625      0             -3.3473025     -0.14319859   
    174000   0.010179217   -3.3574375      0             -3.3472682     -0.16305172   
    176000   0.0096478161  -3.3577573      0             -3.3481189     -0.11217666   
    178000   0.0098722073  -3.3579133      0             -3.3480507     -0.11578908   
    180000   0.0097405141  -3.3576417      0             -3.3479107     -0.084366639  
    182000   0.010266524   -3.3583052      0             -3.3480487     -0.10460366   
    184000   0.010066504   -3.3572671      0             -3.3472104     -0.125058     
    186000   0.010445562   -3.3588021      0             -3.3483668     -0.13766703   
    188000   0.0097284652  -3.3576703      0             -3.3479513     -0.13455071   
    190000   0.010171346   -3.3578296      0             -3.3476682     -0.12786293   
    192000   0.010586118   -3.358457       0             -3.3478813     -0.12417016   
    194000   0.0099299891  -3.3567606      0             -3.3468403     -0.10945711   
    196000   0.010376581   -3.3581854      0             -3.3478189     -0.11190095   
    198000   0.0096781644  -3.3576691      0             -3.3480004     -0.094215619  
    200000   0.0095278316  -3.3579419      0             -3.3484234     -0.1248873    
Loop time of 13.4517 on 4 procs for 200000 steps with 1024 atoms

Performance: 3211484.878 tau/day, 14867.986 timesteps/s, 15.225 Matom-step/s
100.0% CPU use with 4 MPI tasks x no OpenMP threads

MPI task timing breakdown:
Section |  min time  |  avg time  |  max time  |%varavg| %total
---------------------------------------------------------------
Pair    | 3.8426     | 5.0095     | 6.2205     |  37.6 | 37.24
Neigh   | 0.30752    | 0.37141    | 0.44336    |   8.1 |  2.76
Comm    | 3.2672     | 4.7706     | 6.193      |  47.6 | 35.46
Output  | 0.0023383  | 0.0025242  | 0.0027178  |   0.3 |  0.02
Modify  | 0.96629    | 1.1513     | 1.3655     |  15.3 |  8.56
Other   |            | 2.146      |            |       | 15.96

Nlocal:            256 ave         324 max         197 min
Histogram: 1 0 0 1 0 1 0 0 0 1
Nghost:         144.75 ave         159 max         135 min
Histogram: 1 0 1 0 1 0 0 0 0 1
Neighs:           3426 ave        4302 max        2687 min
Histogram: 1 0 0 0 2 0 0 0 0 1

Total # of neighbors = 13704
Ave neighs/atom = 13.382812
Neighbor list builds = 10000
Dangerous builds not checked
Total wall time: 0:00:13
