LAMMPS (2 Aug 2023)
Processor partition = 0
# 2d Lennard-Jones melt

units		lj
dimension	2
atom_style	atomic
boundary 	p p p

read_data       lammp.xyz.init
Reading data file ...
  orthogonal box = (0 0 -0.5) to (37.712362 37.712362 0.5)
  2 by 2 by 1 MPI processor grid
  reading atoms ...
  1024 atoms
  read_data CPU = 0.008 seconds

variable temp_val world 1.00e-02 1.4650e-02 1.9741e-02 2.6601e-02 3.5846e-02 4.8303e-02 6.5089e-02 8.7710e-02 1.1819e-01 1.5926e-01 2.1461e-01 2.8920e-01 3.8970e-01 5.2513e-01 7.0762e-01 9.5354e-01

variable Ntot equal 200000

#velocity        all create ${temp_val} 14903 loop geom

# enforce 2D dynamics
fix             enforce2d all enforce2d

pair_style	table linear 301
pair_coeff	1 1 ljgp.tab LJGP 2.5
WARNING: 1 of 301 force values in table LJGP are inconsistent with -dE/dr.
WARNING:  Should only be flagged at inflection points (../pair_table.cpp:466)

neighbor	0.3 bin
neigh_modify	every 20 delay 0 check no

timestep 0.0025
# TBEG=1.0 TEND=1.0 TDAMP=0.5
fix             1 all nvt temp ${temp_val} ${temp_val} $(100.0*dt)
fix             1 all nvt temp 1.00e-02 ${temp_val} $(100.0*dt)
fix             1 all nvt temp 1.00e-02 1.00e-02 $(100.0*dt)
fix             1 all nvt temp 1.00e-02 1.00e-02 0.25

# output configuration every 500 steps
#dump 1 all atom 1000 dump.lammps.out
variable rep world 0 1 2 3 4 5 6 7 8 9 10 11 12 13 14 15
dump 1 all atom 40000 dump.temper.${rep}
dump 1 all atom 40000 dump.temper.0

thermo          2000
# run 5000 steps
#run             ${Ntot}

temper ${Ntot} 400 ${temp_val} 1 3847 58382
temper 200000 400 ${temp_val} 1 3847 58382
temper 200000 400 1.00e-02 1 3847 58382
Generated 0 of 0 mixed pair_coeff terms from geometric mixing rule
Neighbor list info ...
  update: every = 20 steps, delay = 0 steps, check = no
  max neighbors/atom: 2000, page size: 100000
  master list distance cutoff = 2.8
  ghost atom cutoff = 2.8
  binsize = 1.4, bins = 27 27 1
  1 neighbor lists, perpetual/occasional/extra = 1 0 0
  (1) pair table, perpetual
      attributes: half, newton on
      pair build: half/bin/atomonly/newton
      stencil: half/bin/2d
      bin: standard
Per MPI rank memory allocation (min/avg/max) = 2.551 | 2.551 | 2.551 Mbytes
   Step          Temp          E_pair         E_mol          TotEng         Press     
         0   0             -1.5184298      0             -1.5184298     -2.8069358    
      2000   5.8650533e-26 -1.5184298      0             -1.5184298     -2.8069358    
      4000   0.044681116   -1.6126081      0             -1.5679707     -2.0169602    
      6000   0.019109772   -2.5441394      0             -2.5250483     -0.39317615   
      8000   0.013754124   -2.7524977      0             -2.738757      -0.20963489   
     10000   0.026196737   -2.8505752      0             -2.824404      -0.086784846  
     12000   0.047254927   -2.9152644      0             -2.8680556     -0.060771838  
     14000   0.067054824   -2.9684353      0             -2.901446      -0.060267809  
     16000   0.068489494   -2.9982524      0             -2.9298298     -0.10417675   
     18000   0.16510291    -2.9194254      0             -2.7544838     -0.22215968   
     20000   0.2947552     -2.8027188      0             -2.5082515      0.038210118  
     22000   0.40095826    -2.6118823      0             -2.2113156     -0.037694872  
     24000   0.39824565    -2.6398108      0             -2.2419541      0.026420137  
     26000   0.40655021    -2.6647044      0             -2.2585512      0.058605084  
     28000   0.40563099    -2.6780326      0             -2.2727977     -0.060506587  
     30000   0.39193921    -2.7056543      0             -2.3140979      0.20593784   
     32000   0.38546712    -2.7095981      0             -2.3245074     -0.081539379  
     34000   0.36721738    -2.6664999      0             -2.2996411      0.013907739  
     36000   0.39479388    -2.7007313      0             -2.306323       0.0016952277 
     38000   0.38561391    -2.7047488      0             -2.3195115     -0.22111907   
     40000   0.36754322    -2.7927911      0             -2.4256068     -0.018531193  
     42000   0.39304317    -2.7877267      0             -2.3950674      0.16934792   
     44000   0.38901784    -2.778134       0             -2.389496       0.14357523   
     46000   0.3809416     -2.7687046      0             -2.388135       0.080647664  
     48000   0.38346127    -2.7687833      0             -2.3856965     -0.028101144  
     50000   0.39266129    -2.8107845      0             -2.4185067     -0.13734808   
     52000   0.38560663    -2.7697271      0             -2.384497      -0.10567302   
     54000   0.37607826    -2.7540463      0             -2.3783353     -0.045133876  
     56000   0.39904192    -2.7973782      0             -2.398726      -0.062617158  
     58000   0.39043137    -2.7573624      0             -2.3673123      0.11043544   
     60000   0.40107495    -2.7443499      0             -2.3436666     -0.077261778  
     62000   0.3816021     -2.7704685      0             -2.389239       0.09678096   
     64000   0.38653504    -2.8362884      0             -2.4501309     -0.087417214  
     66000   0.40302175    -2.741493       0             -2.3388648     -0.20372029   
     68000   0.39656038    -2.7989085      0             -2.4027353      0.072993563  
     70000   0.38551799    -2.8081078      0             -2.4229663     -0.12747071   
     72000   0.38096883    -2.7984268      0             -2.41783        0.097342918  
     74000   0.37839353    -2.7872831      0             -2.409259       0.079376891  
     76000   0.40326943    -2.7716264      0             -2.3687508     -0.033406008  
     78000   0.39292943    -2.8138357      0             -2.42129       -0.045759658  
     80000   0.3802625     -2.788147       0             -2.4082558     -0.11512608   
     82000   0.38390531    -2.7954585      0             -2.4119281     -0.066084671  
     84000   0.38809052    -2.803423       0             -2.4157115      0.043337603  
     86000   0.37623137    -2.8058755      0             -2.4300115     -0.034985662  
     88000   0.39005129    -2.8252848      0             -2.4356144      0.039573134  
     90000   0.38770196    -2.8042947      0             -2.4169713     -0.086695573  
     92000   0.37804788    -2.7993923      0             -2.4217136     -0.027340993  
     94000   0.39400381    -2.845752       0             -2.452133      -0.023970804  
     96000   0.40865302    -2.8018795      0             -2.3936256     -0.10825397   
     98000   0.38712856    -2.8272486      0             -2.4404981      0.093186678  
    100000   0.39468803    -2.8261826      0             -2.43188       -0.078150858  
    102000   0.40936023    -2.891276       0             -2.4823156      0.19069383   
    104000   0.37290385    -2.8472993      0             -2.4747596     -0.13047928   
    106000   0.38121793    -2.8557468      0             -2.4749012      0.047160123  
    108000   0.39512355    -2.8124241      0             -2.4176864      0.070764285  
    110000   0.40331671    -2.824931       0             -2.4220082     -0.0010402545 
    112000   0.38571091    -2.810699       0             -2.4253647     -0.00050217272
    114000   0.36817985    -2.8079234      0             -2.4401031      0.044181335  
    116000   0.38723707    -2.8621176      0             -2.4752587      0.0091302808 
    118000   0.37147314    -2.8975487      0             -2.5264383     -0.05217644   
    120000   0.3857556     -2.8509623      0             -2.4655834     -0.10445951   
    122000   0.39560661    -2.848448       0             -2.4532277      0.0084492755 
    124000   0.41368178    -2.8327732      0             -2.4194954     -0.067606215  
    126000   0.37491562    -2.8085349      0             -2.4339854      0.080709779  
    128000   0.38639901    -2.8373334      0             -2.4513118      0.12518511   
    130000   0.40134965    -2.858405       0             -2.4574473     -0.0031572175 
    132000   0.39327067    -2.876955       0             -2.4840684     -0.25865501   
    134000   0.37546818    -2.875952       0             -2.5008505      0.070178308  
    136000   0.38177681    -2.8497133      0             -2.4683093      0.12201038   
    138000   0.38479333    -2.8931852      0             -2.5087676     -0.093494964  
    140000   0.37555416    -2.8662422      0             -2.4910548      0.059499643  
    142000   0.3944674     -2.8695777      0             -2.4754955     -0.058523399  
    144000   0.40307238    -2.8512116      0             -2.4485328     -0.04927304   
    146000   0.402085      -2.8792339      0             -2.4775416      0.043900124  
    148000   0.39081593    -2.8342305      0             -2.4437962      0.097521074  
    150000   0.38413558    -2.8773825      0             -2.493622       0.058025329  
    152000   0.40289348    -2.8817423      0             -2.4792423     -0.15851981   
    154000   0.38306385    -2.9072946      0             -2.5246048      0.042790392  
    156000   0.38468743    -2.8677798      0             -2.483468       0.13317684   
    158000   0.39329564    -2.898559       0             -2.5056474      0.0764505    
    160000   0.37724027    -2.8752521      0             -2.4983802     -0.10408873   
    162000   0.38635136    -2.880631       0             -2.494657       0.042655931  
    164000   0.40916095    -2.8679579      0             -2.4591965      0.096515651  
    166000   0.36351013    -2.8829159      0             -2.5197608     -0.038638733  
    168000   0.41004306    -2.8957074      0             -2.4860648      0.10523289   
    170000   0.39009       -2.8440572      0             -2.4543482      0.16101271   
    172000   0.39133568    -2.8820423      0             -2.4910888      0.0016607334 
    174000   0.38450408    -2.871153       0             -2.4870244     -0.13619888   
    176000   0.36722226    -2.8865414      0             -2.5196778     -0.1565227    
    178000   0.40616342    -2.8939498      0             -2.488183       0.069006678  
    180000   0.37985979    -2.8459033      0             -2.4664145      0.045469449  
    182000   0.41065231    -2.9124389      0             -2.5021876      0.10538603   
    184000   0.35957239    -2.9071363      0             -2.547915      -0.071207844  
    186000   0.40193637    -2.8752664      0             -2.4737226      0.0039711289 
    188000   0.40155586    -2.8631407      0             -2.461977       0.18187608   
    190000   0.39430916    -2.8928343      0             -2.4989102      0.097753634  
    192000   0.39685258    -2.8560523      0             -2.4595873     -0.067156223  
    194000   0.37971527    -2.939387       0             -2.5600426      0.10813248   
    196000   0.3642131     -2.8874975      0             -2.5236401     -0.30245429   
    198000   0.28787063    -3.0697551      0             -2.7821656     -0.2121206    
    200000   0.28592505    -3.059112       0             -2.7734661     -0.23894712   
Loop time of 13.4516 on 4 procs for 200000 steps with 1024 atoms

Performance: 3211502.151 tau/day, 14868.066 timesteps/s, 15.225 Matom-step/s
100.0% CPU use with 4 MPI tasks x no OpenMP threads

MPI task timing breakdown:
Section |  min time  |  avg time  |  max time  |%varavg| %total
---------------------------------------------------------------
Pair    | 3.6704     | 4.9419     | 6.514      |  45.9 | 36.74
Neigh   | 0.46062    | 0.60368    | 0.76722    |  14.1 |  4.49
Comm    | 3.4576     | 5.2875     | 6.8307     |  52.5 | 39.31
Output  | 0.002589   | 0.0027846  | 0.0029763  |   0.3 |  0.02
Modify  | 1.0841     | 1.21       | 1.2986     |   7.5 |  9.00
Other   |            | 1.406      |            |       | 10.45

Nlocal:            256 ave         339 max         175 min
Histogram: 1 0 0 1 0 1 0 0 0 1
Nghost:          148.5 ave         169 max         129 min
Histogram: 1 0 0 0 1 1 0 0 0 1
Neighs:        3274.25 ave        4285 max        2365 min
Histogram: 1 0 0 0 2 0 0 0 0 1

Total # of neighbors = 13097
Ave neighs/atom = 12.790039
Neighbor list builds = 10000
Dangerous builds not checked
Total wall time: 0:00:13
