LAMMPS (2 Aug 2023)
Processor partition = 6
# 2d Lennard-Jones melt

units		lj
dimension	2
atom_style	atomic
boundary 	p p p

read_data       lammp.xyz.init
Reading data file ...
  orthogonal box = (0 0 -0.5) to (37.712362 37.712362 0.5)
  2 by 2 by 1 MPI processor grid
  reading atoms ...
  1024 atoms
  read_data CPU = 0.009 seconds

variable temp_val world 1.00e-02 1.4650e-02 1.9741e-02 2.6601e-02 3.5846e-02 4.8303e-02 6.5089e-02 8.7710e-02 1.1819e-01 1.5926e-01 2.1461e-01 2.8920e-01 3.8970e-01 5.2513e-01 7.0762e-01 9.5354e-01

variable Ntot equal 200000

#velocity        all create ${temp_val} 14903 loop geom

# enforce 2D dynamics
fix             enforce2d all enforce2d

pair_style	table linear 301
pair_coeff	1 1 ljgp.tab LJGP 2.5
WARNING: 1 of 301 force values in table LJGP are inconsistent with -dE/dr.
WARNING:  Should only be flagged at inflection points (../pair_table.cpp:466)

neighbor	0.3 bin
neigh_modify	every 20 delay 0 check no

timestep 0.0025
# TBEG=1.0 TEND=1.0 TDAMP=0.5
fix             1 all nvt temp ${temp_val} ${temp_val} $(100.0*dt)
fix             1 all nvt temp 6.5089e-02 ${temp_val} $(100.0*dt)
fix             1 all nvt temp 6.5089e-02 6.5089e-02 $(100.0*dt)
fix             1 all nvt temp 6.5089e-02 6.5089e-02 0.25

# output configuration every 500 steps
#dump 1 all atom 1000 dump.lammps.out
variable rep world 0 1 2 3 4 5 6 7 8 9 10 11 12 13 14 15
dump 1 all atom 40000 dump.temper.${rep}
dump 1 all atom 40000 dump.temper.6

thermo          2000
# run 5000 steps
#run             ${Ntot}

temper ${Ntot} 400 ${temp_val} 1 3847 58382
temper 200000 400 ${temp_val} 1 3847 58382
temper 200000 400 6.5089e-02 1 3847 58382
Generated 0 of 0 mixed pair_coeff terms from geometric mixing rule
Neighbor list info ...
  update: every = 20 steps, delay = 0 steps, check = no
  max neighbors/atom: 2000, page size: 100000
  master list distance cutoff = 2.8
  ghost atom cutoff = 2.8
  binsize = 1.4, bins = 27 27 1
  1 neighbor lists, perpetual/occasional/extra = 1 0 0
  (1) pair table, perpetual
      attributes: half, newton on
      pair build: half/bin/atomonly/newton
      stencil: half/bin/2d
      bin: standard
Per MPI rank memory allocation (min/avg/max) = 2.551 | 2.551 | 2.551 Mbytes
   Step          Temp          E_pair         E_mol          TotEng         Press     
         0   0             -1.5184298      0             -1.5184298     -2.8069358    
      2000   7.5736955e-27 -1.5184298      0             -1.5184298     -2.8069358    
      4000   0.029395748   -1.5506126      0             -1.5212456     -2.4801279    
      6000   0.068003779   -2.665867       0             -2.5979297     -0.33032521   
      8000   0.095297221   -2.865249       0             -2.7700448     -0.16272915   
     10000   0.15742956    -2.8603425      0             -2.7030667     -0.086594641  
     12000   0.21857666    -2.8343906      0             -2.6160274      0.067239702  
     14000   0.2103239     -2.8737375      0             -2.663619      -0.075130266  
     16000   0.20611427    -2.9182232      0             -2.7123102     -0.17626038   
     18000   0.21643453    -2.9377439      0             -2.7215207      0.057432917  
     20000   0.1582937     -3.0265767      0             -2.8684376      0.083332964  
     22000   0.21853986    -2.9641739      0             -2.7458474      0.016986321  
     24000   0.2929644     -2.8744805      0             -2.5818022      0.065891697  
     26000   0.28718442    -2.8923747      0             -2.6054707     -0.11953585   
     28000   0.2877665     -2.8710637      0             -2.5835782     -0.09331314   
     30000   0.28382806    -2.9138951      0             -2.6303442     -0.014423057  
     32000   0.29368036    -2.9124591      0             -2.6190655      0.094775122  
     34000   0.29831521    -2.9265423      0             -2.6285184      0.081808904  
     36000   0.2862618     -2.9307985      0             -2.6448162      0.0022987001 
     38000   0.28554716    -2.9430132      0             -2.6577448     -0.094660666  
     40000   0.27997591    -2.9538519      0             -2.6741494     -0.012161973  
     42000   0.30907139    -2.9585665      0             -2.6497969      0.16020055   
     44000   0.30197608    -2.952123       0             -2.6504418      0.048434839  
     46000   0.28222479    -2.9566562      0             -2.674707      -0.16595725   
     48000   0.2138936     -3.0597217      0             -2.846037      -0.21784011   
     50000   0.20443323    -3.0813498      0             -2.8771163     -0.078805401  
     52000   0.20627037    -3.0757395      0             -2.8696706     -0.055188431  
     54000   0.21952755    -3.0774002      0             -2.858087       0.080871099  
     56000   0.20417116    -3.0657434      0             -2.8617717     -0.0084644281 
     58000   0.21415709    -3.0898186      0             -2.8758706      0.065736536  
     60000   0.21800523    -3.0694472      0             -2.8516549     -0.022710268  
     62000   0.21523687    -3.0948242      0             -2.8797975      0.22951072   
     64000   0.21285534    -3.0838238      0             -2.8711763      0.014184659  
     66000   0.20137734    -3.0773714      0             -2.8761907      0.024823501  
     68000   0.22186367    -3.0913132      0             -2.8696661     -0.062599253  
     70000   0.21312196    -3.0954072      0             -2.8824934     -0.041416203  
     72000   0.21323054    -3.10408        0             -2.8910577      0.085617715  
     74000   0.12000817    -3.2046546      0             -3.0847636      0.0037915419 
     76000   0.034830517   -3.3000482      0             -3.2652517     -0.078207013  
     78000   0.019812557   -3.3148329      0             -3.2950397     -0.024498556  
     80000   0.019030087   -3.3156606      0             -3.2966491     -0.10877572   
     82000   0.018481714   -3.3150404      0             -3.2965768     -0.050141423  
     84000   0.019206397   -3.3158527      0             -3.2966651     -0.031463118  
     86000   0.018952813   -3.3158434      0             -3.2969091     -0.076107095  
     88000   0.019963391   -3.316771       0             -3.2968271     -0.086731428  
     90000   0.019620999   -3.3144493      0             -3.2948475     -0.091696588  
     92000   0.019029286   -3.3159836      0             -3.2969729     -0.075329525  
     94000   0.020830816   -3.315073       0             -3.2942626     -0.064135304  
     96000   0.021049466   -3.3157365      0             -3.2947075     -0.029946057  
     98000   0.020402492   -3.3150704      0             -3.2946878     -0.064727777  
    100000   0.019491817   -3.3155326      0             -3.2960598     -0.064822515  
    102000   0.021208534   -3.3156974      0             -3.2945096     -0.025602902  
    104000   0.018753829   -3.3159504      0             -3.2972149     -0.049301918  
    106000   0.020012914   -3.3145777      0             -3.2945843     -0.056304481  
    108000   0.020331969   -3.3161519      0             -3.2958398     -0.043894295  
    110000   0.018724304   -3.3161384      0             -3.2974324     -0.044914979  
    112000   0.020097397   -3.3165576      0             -3.2964798     -0.071177866  
    114000   0.019520454   -3.3156197      0             -3.2961184     -0.060986622  
    116000   0.020008056   -3.3160789      0             -3.2960904     -0.003673394  
    118000   0.019341247   -3.3155731      0             -3.2962508     -0.070244547  
    120000   0.020083268   -3.3168448      0             -3.2967811      0.0017807254 
    122000   0.020895468   -3.3161677      0             -3.2952927     -0.047576976  
    124000   0.020237771   -3.3164418      0             -3.2962238     -0.044434815  
    126000   0.019168171   -3.3163902      0             -3.2972407     -0.046295404  
    128000   0.020255734   -3.3178603      0             -3.2976244     -0.05450304   
    130000   0.020523286   -3.3163716      0             -3.2958683     -0.047878784  
    132000   0.01931184    -3.3178338      0             -3.2985408      0.032999164  
    134000   0.02046881    -3.3166846      0             -3.2962357     -0.061919021  
    136000   0.018874923   -3.3175351      0             -3.2986786     -0.012135899  
    138000   0.020239493   -3.3181834      0             -3.2979637     -0.01711799   
    140000   0.019398011   -3.3174958      0             -3.2981168     -0.032421936  
    142000   0.019359208   -3.31751        0             -3.2981696     -0.042398076  
    144000   0.019751056   -3.3168555      0             -3.2971237      0.018454447  
    146000   0.020629496   -3.3166154      0             -3.2960061      0.020404284  
    148000   0.020999237   -3.316702       0             -3.2957233     -0.048345653  
    150000   0.018904719   -3.317471       0             -3.2985848     -0.0046496918 
    152000   0.019043423   -3.3172311      0             -3.2982063     -0.04669869   
    154000   0.021160533   -3.3176191      0             -3.2964792     -0.044174004  
    156000   0.019134291   -3.3169272      0             -3.2978116     -0.045293383  
    158000   0.019370579   -3.3166751      0             -3.2973234     -0.042965633  
    160000   0.020396824   -3.3173322      0             -3.2969553     -0.045691679  
    162000   0.020022021   -3.3172377      0             -3.2972352     -0.063376684  
    164000   0.018478608   -3.3174766      0             -3.299016      -0.033843269  
    166000   0.019361717   -3.3173774      0             -3.2980346     -0.024340751  
    168000   0.019085926   -3.3174747      0             -3.2984075     -0.056087664  
    170000   0.019249299   -3.3161051      0             -3.2968746      0.0076313729 
    172000   0.019846659   -3.3166831      0             -3.2968558     -0.023249805  
    174000   0.01991017    -3.3163386      0             -3.2964479     -0.014998715  
    176000   0.018298424   -3.3177202      0             -3.2994397     -0.02192689   
    178000   0.018600053   -3.3176073      0             -3.2990254     -0.067382588  
    180000   0.019412671   -3.3170271      0             -3.2976334     -0.033618639  
    182000   0.020132102   -3.3167867      0             -3.2966742     -0.020281573  
    184000   0.020519742   -3.3171         0             -3.2966003     -0.019588835  
    186000   0.019781536   -3.3175817      0             -3.2978194     -0.010837429  
    188000   0.019808114   -3.3165805      0             -3.2967917     -0.044289638  
    190000   0.020246388   -3.317454       0             -3.2972273     -0.014591364  
    192000   0.019401845   -3.3160718      0             -3.296689      -0.03096125   
    194000   0.01904077    -3.3172908      0             -3.2982686      0.0064352807 
    196000   0.019004983   -3.3172531      0             -3.2982667     -0.0084533879 
    198000   0.020211878   -3.3173827      0             -3.2971905     -0.02748239   
    200000   0.018393646   -3.3172417      0             -3.298866      -0.011292955  
Loop time of 13.4516 on 4 procs for 200000 steps with 1024 atoms

Performance: 3211505.715 tau/day, 14868.082 timesteps/s, 15.225 Matom-step/s
100.0% CPU use with 4 MPI tasks x no OpenMP threads

MPI task timing breakdown:
Section |  min time  |  avg time  |  max time  |%varavg| %total
---------------------------------------------------------------
Pair    | 3.1742     | 5.0397     | 7.424      |  67.9 | 37.47
Neigh   | 0.22144    | 0.4244     | 0.63933    |  22.7 |  3.16
Comm    | 3.7621     | 6.4443     | 8.5888     |  68.1 | 47.91
Output  | 0.0025895  | 0.0027805  | 0.0029645  |   0.3 |  0.02
Modify  | 1.2557     | 1.3226     | 1.3963     |   5.8 |  9.83
Other   |            | 0.2178     |            |       |  1.62

Nlocal:            256 ave         371 max         151 min
Histogram: 1 0 0 0 2 0 0 0 0 1
Nghost:            131 ave         138 max         126 min
Histogram: 2 0 0 0 0 0 1 0 0 1
Neighs:           3336 ave        5133 max        1770 min
Histogram: 1 0 0 0 2 0 0 0 0 1

Total # of neighbors = 13344
Ave neighs/atom = 13.03125
Neighbor list builds = 10000
Dangerous builds not checked
Total wall time: 0:00:13
