LAMMPS (2 Aug 2023)
Processor partition = 13
# 2d Lennard-Jones melt

units		lj
dimension	2
atom_style	atomic
boundary 	p p p

read_data       lammp.xyz.init
Reading data file ...
  orthogonal box = (0 0 -0.5) to (37.712362 37.712362 0.5)
  2 by 2 by 1 MPI processor grid
  reading atoms ...
  1024 atoms
  read_data CPU = 0.008 seconds

variable temp_val world 1.00e-02 1.4650e-02 1.9741e-02 2.6601e-02 3.5846e-02 4.8303e-02 6.5089e-02 8.7710e-02 1.1819e-01 1.5926e-01 2.1461e-01 2.8920e-01 3.8970e-01 5.2513e-01 7.0762e-01 9.5354e-01

variable Ntot equal 200000

#velocity        all create ${temp_val} 14903 loop geom

# enforce 2D dynamics
fix             enforce2d all enforce2d

pair_style	table linear 301
pair_coeff	1 1 ljgp.tab LJGP 2.5
WARNING: 1 of 301 force values in table LJGP are inconsistent with -dE/dr.
WARNING:  Should only be flagged at inflection points (../pair_table.cpp:466)

neighbor	0.3 bin
neigh_modify	every 20 delay 0 check no

timestep 0.0025
# TBEG=1.0 TEND=1.0 TDAMP=0.5
fix             1 all nvt temp ${temp_val} ${temp_val} $(100.0*dt)
fix             1 all nvt temp 5.2513e-01 ${temp_val} $(100.0*dt)
fix             1 all nvt temp 5.2513e-01 5.2513e-01 $(100.0*dt)
fix             1 all nvt temp 5.2513e-01 5.2513e-01 0.25

# output configuration every 500 steps
#dump 1 all atom 1000 dump.lammps.out
variable rep world 0 1 2 3 4 5 6 7 8 9 10 11 12 13 14 15
dump 1 all atom 40000 dump.temper.${rep}
dump 1 all atom 40000 dump.temper.13

thermo          2000
# run 5000 steps
#run             ${Ntot}

temper ${Ntot} 400 ${temp_val} 1 3847 58382
temper 200000 400 ${temp_val} 1 3847 58382
temper 200000 400 5.2513e-01 1 3847 58382
Generated 0 of 0 mixed pair_coeff terms from geometric mixing rule
Neighbor list info ...
  update: every = 20 steps, delay = 0 steps, check = no
  max neighbors/atom: 2000, page size: 100000
  master list distance cutoff = 2.8
  ghost atom cutoff = 2.8
  binsize = 1.4, bins = 27 27 1
  1 neighbor lists, perpetual/occasional/extra = 1 0 0
  (1) pair table, perpetual
      attributes: half, newton on
      pair build: half/bin/atomonly/newton
      stencil: half/bin/2d
      bin: standard
Per MPI rank memory allocation (min/avg/max) = 2.551 | 2.551 | 2.551 Mbytes
   Step          Temp          E_pair         E_mol          TotEng         Press     
         0   0             -1.5184298      0             -1.5184298     -2.8069358    
      2000   1.837756e-25  -1.5184298      0             -1.5184298     -2.8069358    
      4000   0.66033088    -1.4423487      0             -0.7826627      0.89992744   
      6000   0.72876366    -2.0329867      0             -1.3049348      0.60883533   
      8000   0.71409507    -1.8725118      0             -1.1591141      0.33338638   
     10000   0.72894578    -1.852406       0             -1.1241721      0.40995174   
     12000   0.69230169    -1.8601265      0             -1.1685009      0.28711379   
     14000   0.68693673    -1.8596499      0             -1.1733841      0.35987009   
     16000   0.73287806    -1.8505902      0             -1.1184279      0.34247567   
     18000   0.75653306    -1.8431778      0             -1.0873835      0.47607683   
     20000   0.74691187    -1.8588921      0             -1.1127096      0.40589672   
     22000   0.72170272    -1.8211627      0             -1.1001648      0.25564558   
     24000   0.72381331    -1.8207267      0             -1.0976202      0.3733306    
     26000   0.72945513    -1.8214478      0             -1.092705       0.31616772   
     28000   0.72627608    -1.8117314      0             -1.0861646      0.37134446   
     30000   0.69958552    -1.7945385      0             -1.0956362      0.45122245   
     32000   0.73094444    -1.8721242      0             -1.1418936      0.047349346  
     34000   0.74927222    -1.8227789      0             -1.0742384      0.32198254   
     36000   0.71751564    -1.7819801      0             -1.0651651      0.52871214   
     38000   0.71782685    -1.8604682      0             -1.1433423      0.19943003   
     40000   0.73090627    -1.8147465      0             -1.084554       0.27598473   
     42000   0.7105154     -1.8414838      0             -1.1316622      0.22208625   
     44000   0.73123525    -1.8001439      0             -1.0696227      0.57084665   
     46000   0.6818582     -1.8103581      0             -1.1291658      0.32646773   
     48000   0.68752731    -1.8192773      0             -1.1324214      0.3819114    
     50000   0.72349298    -1.8246047      0             -1.1018183      0.40724124   
     52000   0.70662627    -1.8165317      0             -1.1105955      0.38959801   
     54000   0.67630505    -1.8356365      0             -1.1599919      0.082484191  
     56000   0.6771158     -1.8748786      0             -1.1984241      0.11645635   
     58000   0.70878345    -1.8017138      0             -1.0936225      0.34238356   
     60000   0.71206772    -1.8742277      0             -1.1628554      0.16808394   
     62000   0.70373368    -1.8248789      0             -1.1218324      0.32902309   
     64000   0.72005092    -1.8344903      0             -1.1151425      0.34686685   
     66000   0.66086317    -1.8279888      0             -1.167771       0.35657088   
     68000   0.71045126    -1.8398157      0             -1.1300583      0.33109216   
     70000   0.70674414    -1.8220243      0             -1.1159703      0.29465187   
     72000   0.69173147    -1.8073834      0             -1.1163275      0.36791985   
     74000   0.69982405    -1.8392369      0             -1.1400962      0.19288743   
     76000   0.69110856    -1.8423092      0             -1.1518756      0.39818884   
     78000   0.66552867    -1.7977425      0             -1.1328638      0.3864736    
     80000   0.71630107    -1.8378964      0             -1.1222949      0.30080955   
     82000   0.70699817    -1.8195276      0             -1.1132198      0.3615615    
     84000   0.68001224    -1.8129011      0             -1.1335529      0.35912916   
     86000   0.71496098    -1.8173182      0             -1.1030554      0.51653414   
     88000   0.6980238     -1.8124505      0             -1.1151084      0.38715512   
     90000   0.69093795    -1.8022924      0             -1.1120292      0.39672171   
     92000   0.71231512    -1.820041       0             -1.1084215      0.39852143   
     94000   0.70673329    -1.7999069      0             -1.0938638      0.30753835   
     96000   0.71326289    -1.8399389      0             -1.1273726      0.27286211   
     98000   0.69317356    -1.8155014      0             -1.1230047      0.30372612   
    100000   0.71733854    -1.8109497      0             -1.0943117      0.23085051   
    102000   0.68081345    -1.8495235      0             -1.1693749      0.27077953   
    104000   0.72006985    -1.8540288      0             -1.1346622      0.27090316   
    106000   0.70515303    -1.8260469      0             -1.1215825      0.42671772   
    108000   0.69739826    -1.807481       0             -1.1107638      0.28366627   
    110000   0.72726067    -1.8182076      0             -1.0916572      0.40673519   
    112000   0.67444281    -1.8120282      0             -1.1382441      0.40855474   
    114000   0.71553055    -1.8268309      0             -1.1119991      0.49581672   
    116000   0.71370345    -1.809138       0             -1.0961316      0.45195651   
    118000   0.71345764    -1.8358401      0             -1.1230792      0.39588338   
    120000   0.69087915    -1.8167156      0             -1.1265112      0.35422388   
    122000   0.71246696    -1.8359139      0             -1.1241427      0.32250686   
    124000   0.72009251    -1.8116837      0             -1.0922944      0.41942614   
    126000   0.69264384    -1.8405469      0             -1.1485795      0.20438036   
    128000   0.70302106    -1.81466        0             -1.1123255      0.18794334   
    130000   0.74606578    -1.798127       0             -1.0527898      0.34085934   
    132000   0.7397589     -1.8304074      0             -1.0913709      0.26365666   
    134000   0.73139588    -1.8273808      0             -1.0966992      0.22953372   
    136000   0.71778558    -1.8545341      0             -1.1374494      0.40004777   
    138000   0.68660815    -1.7866085      0             -1.1006709      0.39602194   
    140000   0.69396346    -1.8068989      0             -1.1136131      0.34592566   
    142000   0.71176736    -1.796093       0             -1.0850207      0.15838119   
    144000   0.68472073    -1.8021238      0             -1.1180718      0.52023554   
    146000   0.71861962    -1.820444       0             -1.1025262      0.34568311   
    148000   0.70112152    -1.8352967      0             -1.1348598      0.21176404   
    150000   0.68115853    -1.8153561      0             -1.1348627      0.3782881    
    152000   0.69920865    -1.8170204      0             -1.1184945      0.34084128   
    154000   0.70968641    -1.791879       0             -1.0828857      0.30925479   
    156000   0.71994656    -1.8041886      0             -1.0849451      0.39492901   
    158000   0.67755523    -1.8427128      0             -1.1658193      0.1539455    
    160000   0.71152982    -1.8560744      0             -1.1452394      0.2517679    
    162000   0.73298819    -1.8190331      0             -1.0867607      0.59709775   
    164000   0.72394782    -1.8598637      0             -1.1366228      0.50950021   
    166000   0.69138059    -1.8385428      0             -1.1478374      0.39198958   
    168000   0.72462783    -1.8349554      0             -1.1110352      0.32003939   
    170000   0.71700427    -1.8005105      0             -1.0842065      0.42036156   
    172000   0.6780284     -1.7845616      0             -1.1071954      0.55673451   
    174000   0.70033404    -1.8334904      0             -1.1338403      0.35767536   
    176000   0.73155651    -1.7890285      0             -1.0581864      0.46969884   
    178000   0.66119669    -1.8176929      0             -1.1571419      0.3362289    
    180000   0.68259275    -1.8209561      0             -1.1390299      0.39494419   
    182000   0.75091062    -1.810308       0             -1.0601307      0.26796928   
    184000   0.72407245    -1.7976862      0             -1.0743209      0.57278242   
    186000   0.68365721    -1.8196447      0             -1.1366551      0.26428599   
    188000   0.72438678    -1.8389425      0             -1.1152631      0.38840974   
    190000   0.71165435    -1.8293291      0             -1.1183697      0.42244673   
    192000   0.71109828    -1.8266641      0             -1.1162603      0.29345966   
    194000   0.68736992    -1.7990782      0             -1.1123796      0.38438961   
    196000   0.67846699    -1.8207039      0             -1.1428994      0.32248984   
    198000   0.71498213    -1.8396209      0             -1.125337       0.30673519   
    200000   0.73286468    -1.8212499      0             -1.0891009      0.38512153   
Loop time of 13.4516 on 4 procs for 200000 steps with 1024 atoms

Performance: 3211508.704 tau/day, 14868.096 timesteps/s, 15.225 Matom-step/s
100.0% CPU use with 4 MPI tasks x no OpenMP threads

MPI task timing breakdown:
Section |  min time  |  avg time  |  max time  |%varavg| %total
---------------------------------------------------------------
Pair    | 3.8458     | 3.9753     | 4.0598     |   4.0 | 29.55
Neigh   | 0.55041    | 0.56011    | 0.56758    |   0.9 |  4.16
Comm    | 4.0516     | 4.1676     | 4.3031     |   4.4 | 30.98
Output  | 0.0025348  | 0.0027421  | 0.002942   |   0.3 |  0.02
Modify  | 1.1627     | 1.183      | 1.2038     |   1.4 |  8.79
Other   |            | 3.563      |            |       | 26.49

Nlocal:            256 ave         262 max         252 min
Histogram: 2 0 0 0 0 0 1 0 0 1
Nghost:            180 ave         191 max         169 min
Histogram: 1 0 1 0 0 0 0 1 0 1
Neighs:         2163.5 ave        2209 max        2095 min
Histogram: 1 0 0 0 0 1 0 0 1 1

Total # of neighbors = 8654
Ave neighs/atom = 8.4511719
Neighbor list builds = 10000
Dangerous builds not checked
Total wall time: 0:00:13
