LAMMPS (2 Aug 2023)
Processor partition = 2
# 2d Lennard-Jones melt

units		lj
dimension	2
atom_style	atomic
boundary 	p p p

read_data       lammp.xyz.init
Reading data file ...
  orthogonal box = (0 0 -0.5) to (37.712362 37.712362 0.5)
  2 by 2 by 1 MPI processor grid
  reading atoms ...
  1024 atoms
  read_data CPU = 0.009 seconds

variable temp_val world 1.00e-02 1.4650e-02 1.9741e-02 2.6601e-02 3.5846e-02 4.8303e-02 6.5089e-02 8.7710e-02 1.1819e-01 1.5926e-01 2.1461e-01 2.8920e-01 3.8970e-01 5.2513e-01 7.0762e-01 9.5354e-01

variable Ntot equal 200000

#velocity        all create ${temp_val} 14903 loop geom

# enforce 2D dynamics
fix             enforce2d all enforce2d

pair_style	table linear 301
pair_coeff	1 1 ljgp.tab LJGP 2.5
WARNING: 1 of 301 force values in table LJGP are inconsistent with -dE/dr.
WARNING:  Should only be flagged at inflection points (../pair_table.cpp:466)

neighbor	0.3 bin
neigh_modify	every 20 delay 0 check no

timestep 0.0025
# TBEG=1.0 TEND=1.0 TDAMP=0.5
fix             1 all nvt temp ${temp_val} ${temp_val} $(100.0*dt)
fix             1 all nvt temp 1.9741e-02 ${temp_val} $(100.0*dt)
fix             1 all nvt temp 1.9741e-02 1.9741e-02 $(100.0*dt)
fix             1 all nvt temp 1.9741e-02 1.9741e-02 0.25

# output configuration every 500 steps
#dump 1 all atom 1000 dump.lammps.out
variable rep world 0 1 2 3 4 5 6 7 8 9 10 11 12 13 14 15
dump 1 all atom 40000 dump.temper.${rep}
dump 1 all atom 40000 dump.temper.2

thermo          2000
# run 5000 steps
#run             ${Ntot}

temper ${Ntot} 400 ${temp_val} 1 3847 58382
temper 200000 400 ${temp_val} 1 3847 58382
temper 200000 400 1.9741e-02 1 3847 58382
Generated 0 of 0 mixed pair_coeff terms from geometric mixing rule
Neighbor list info ...
  update: every = 20 steps, delay = 0 steps, check = no
  max neighbors/atom: 2000, page size: 100000
  master list distance cutoff = 2.8
  ghost atom cutoff = 2.8
  binsize = 1.4, bins = 27 27 1
  1 neighbor lists, perpetual/occasional/extra = 1 0 0
  (1) pair table, perpetual
      attributes: half, newton on
      pair build: half/bin/atomonly/newton
      stencil: half/bin/2d
      bin: standard
Per MPI rank memory allocation (min/avg/max) = 2.551 | 2.551 | 2.551 Mbytes
   Step          Temp          E_pair         E_mol          TotEng         Press     
         0   0             -1.5184298      0             -1.5184298     -2.8069358    
      2000   6.7127331e-27 -1.5184298      0             -1.5184298     -2.8069358    
      4000   0.020911552   -1.5712987      0             -1.5504076     -2.2810065    
      6000   0.029635405   -2.5136836      0             -2.4840772     -0.41805966   
      8000   0.029643173   -2.766321       0             -2.7367067     -0.19354173   
     10000   0.047212288   -2.875764       0             -2.8285978     -0.085080004  
     12000   0.090152774   -2.9133933      0             -2.8233286     -0.027154223  
     14000   0.10874493    -2.9294663      0             -2.8208276     -0.14712785   
     16000   0.1189184     -2.9642019      0             -2.8453996     -0.06852751   
     18000   0.11717093    -3.001909       0             -2.8848525      0.048791131  
     20000   0.11269539    -3.0409484      0             -2.928363       0.00013407001
     22000   0.12272187    -3.0549841      0             -2.9323821      0.05892296   
     24000   0.21186157    -2.9581973      0             -2.7465426      0.089226327  
     26000   0.21392207    -2.9887342      0             -2.775021      -0.0013792438 
     28000   0.21432737    -2.9989473      0             -2.7848292     -0.00129041   
     30000   0.20554263    -3.0348037      0             -2.8294618     -0.073909138  
     32000   0.21355863    -3.0368154      0             -2.8234653     -0.009544967  
     34000   0.21774404    -3.0421266      0             -2.8245952      0.038517837  
     36000   0.21007131    -3.0291081      0             -2.819242      -0.058054521  
     38000   0.22032248    -3.040517       0             -2.8204096      0.16063347   
     40000   0.22538982    -3.0404844      0             -2.8153147      0.059255181  
     42000   0.21116552    -3.0443646      0             -2.8334053     -0.051968885  
     44000   0.21983942    -3.0337645      0             -2.8141398     -0.10690874   
     46000   0.20635541    -3.0515722      0             -2.8454183     -0.042554317  
     48000   0.15373275    -3.1170889      0             -2.9635063     -0.087303429  
     50000   0.1440954     -3.1088099      0             -2.9648552     -0.22197273   
     52000   0.15449149    -3.1170841      0             -2.9627435      0.039030584  
     54000   0.15906722    -3.1134573      0             -2.9545455     -0.14019798   
     56000   0.15815462    -3.1081499      0             -2.9501497     -0.16067509   
     58000   0.15306495    -3.1064422      0             -2.9535267     -0.077534129  
     60000   0.16058848    -3.112198       0             -2.9517663     -0.02830015   
     62000   0.1574748     -3.1049907      0             -2.9476697     -0.11928571   
     64000   0.16023164    -3.1203933      0             -2.9603182     -0.15534862   
     66000   0.15648131    -3.114051       0             -2.9577225     -0.10798324   
     68000   0.15336726    -3.1222246      0             -2.9690071     -0.06517733   
     70000   0.16820077    -3.116676       0             -2.9486395     -0.10402961   
     72000   0.15751278    -3.1032833      0             -2.9459243     -0.16421956   
     74000   0.20301314    -3.0474615      0             -2.8446466      0.0047522657 
     76000   0.21886827    -3.0497695      0             -2.831115      -0.076312247  
     78000   0.21915032    -3.0443735      0             -2.8254372     -0.040820923  
     80000   0.21409364    -3.0484619      0             -2.8345774     -0.044191093  
     82000   0.22237327    -3.0339713      0             -2.8118152      0.045587151  
     84000   0.2245258     -3.0608353      0             -2.8365288     -0.12793742   
     86000   0.21278652    -3.056403       0             -2.8438243     -0.14380214   
     88000   0.21590584    -3.0432409      0             -2.8275459     -0.12009411   
     90000   0.22122241    -3.0581143      0             -2.837108      -0.055752566  
     92000   0.21053303    -3.0440716      0             -2.8337441      0.010283335  
     94000   0.21043037    -3.0652792      0             -2.8550543     -0.067155232  
     96000   0.21177453    -3.0669876      0             -2.8554199     -0.22899893   
     98000   0.21948619    -3.0519789      0             -2.8327071     -0.13497139   
    100000   0.22083101    -3.0439391      0             -2.8233237     -0.14682364   
    102000   0.21165864    -3.0633997      0             -2.8519478     -0.23658262   
    104000   0.21068032    -3.0537773      0             -2.8433027     -0.2368014    
    106000   0.21928869    -3.0588551      0             -2.8397806     -0.098605057  
    108000   0.22900066    -3.0565813      0             -2.8278043     -0.036059843  
    110000   0.21295008    -3.067152       0             -2.8544099     -0.14763203   
    112000   0.20789281    -3.0673942      0             -2.8597044     -0.084788559  
    114000   0.21689348    -3.0517177      0             -2.835036      -0.084978214  
    116000   0.20905607    -3.0680454      0             -2.8591935     -0.20963638   
    118000   0.20918259    -3.0636233      0             -2.854645      -0.20762462   
    120000   0.21671587    -3.0757282      0             -2.8592239     -0.17002868   
    122000   0.20846319    -3.0502171      0             -2.8419574     -0.20692837   
    124000   0.21203353    -3.0693281      0             -2.8575016     -0.20504276   
    126000   0.21071086    -3.0658179      0             -2.8553128     -0.114764     
    128000   0.20587468    -3.0538149      0             -2.8481413     -0.17820632   
    130000   0.22705711    -3.0804771      0             -2.8536417     -0.28290142   
    132000   0.21652896    -3.0699388      0             -2.8536212     -0.2463504    
    134000   0.21029315    -3.0797723      0             -2.8696845     -0.10988897   
    136000   0.20547394    -3.0617421      0             -2.8564688     -0.26156086   
    138000   0.2002276     -3.0612142      0             -2.8611821     -0.21398278   
    140000   0.21275837    -3.0656953      0             -2.8531447     -0.22305647   
    142000   0.2262438     -3.0703571      0             -2.8443342     -0.021402805  
    144000   0.20397833    -3.0620366      0             -2.8582575     -0.27811955   
    146000   0.21924226    -3.0609629      0             -2.8419347     -0.11802041   
    148000   0.21237374    -3.0758584      0             -2.863692      -0.19572414   
    150000   0.21605553    -3.0753418      0             -2.8594973     -0.34225754   
    152000   0.2128832     -3.0749586      0             -2.8622833     -0.19665219   
    154000   0.21845715    -3.0813606      0             -2.8631168     -0.14553261   
    156000   0.21988602    -3.0600008      0             -2.8403295     -0.26343934   
    158000   0.2192658     -3.0629268      0             -2.8438751     -0.14367694   
    160000   0.21711076    -3.0727263      0             -2.8558276     -0.19520683   
    162000   0.2107006     -3.0898236      0             -2.8793287     -0.16830311   
    164000   0.21961789    -3.0714111      0             -2.8520077     -0.13209693   
    166000   0.21111839    -3.0666824      0             -2.8557702     -0.21980155   
    168000   0.2084297     -3.0688469      0             -2.8606207     -0.15094037   
    170000   0.21570274    -3.0749749      0             -2.8594828     -0.26289812   
    172000   0.21400082    -3.0799616      0             -2.8661698     -0.077833202  
    174000   0.21111919    -3.0678055      0             -2.8568925     -0.18355449   
    176000   0.21402437    -3.0678159      0             -2.8540005     -0.1102833    
    178000   0.2130031     -3.0662365      0             -2.8534414     -0.17465682   
    180000   0.21034306    -3.0710377      0             -2.8609001     -0.12444693   
    182000   0.2024752     -3.07485        0             -2.8725725     -0.20096996   
    184000   0.21552782    -3.0703962      0             -2.8550789     -0.13842155   
    186000   0.21670517    -3.0811551      0             -2.8646616      0.011400778  
    188000   0.22412861    -3.073386       0             -2.8494762     -0.23053902   
    190000   0.15733694    -3.1364773      0             -2.979294      -0.39615594   
    192000   0.17279435    -3.1444767      0             -2.9718511     -0.23558187   
    194000   0.16596331    -3.1366796      0             -2.9708784     -0.27042781   
    196000   0.1543275     -3.1278656      0             -2.9736888     -0.17526982   
    198000   0.16159556    -3.1394605      0             -2.9780228     -0.13388488   
    200000   0.15825636    -3.1370148      0             -2.9789129     -0.25871345   
Loop time of 13.4517 on 4 procs for 200000 steps with 1024 atoms

Performance: 3211492.679 tau/day, 14868.022 timesteps/s, 15.225 Matom-step/s
100.0% CPU use with 4 MPI tasks x no OpenMP threads

MPI task timing breakdown:
Section |  min time  |  avg time  |  max time  |%varavg| %total
---------------------------------------------------------------
Pair    | 3.0374     | 4.8618     | 6.2209     |  56.4 | 36.14
Neigh   | 0.30171    | 0.52996    | 0.69979    |  21.7 |  3.94
Comm    | 3.5951     | 5.159      | 7.3499     |  65.1 | 38.35
Output  | 0.0024928  | 0.0026839  | 0.002865   |   0.3 |  0.02
Modify  | 1.1112     | 1.2416     | 1.3341     |   7.3 |  9.23
Other   |            | 1.657      |            |       | 12.32

Nlocal:            256 ave         326 max         156 min
Histogram: 1 0 0 0 1 0 0 0 0 2
Nghost:         132.75 ave         151 max         117 min
Histogram: 1 0 1 0 0 1 0 0 0 1
Neighs:           3258 ave        4174 max        1875 min
Histogram: 1 0 0 0 1 0 0 0 0 2

Total # of neighbors = 13032
Ave neighs/atom = 12.726562
Neighbor list builds = 10000
Dangerous builds not checked
Total wall time: 0:00:13
