LAMMPS (2 Aug 2023)
Processor partition = 11
# 2d Lennard-Jones melt

units		lj
dimension	2
atom_style	atomic
boundary 	p p p

read_data       lammp.xyz.init
Reading data file ...
  orthogonal box = (0 0 -0.5) to (37.712362 37.712362 0.5)
  2 by 2 by 1 MPI processor grid
  reading atoms ...
  1024 atoms
  read_data CPU = 0.008 seconds

variable temp_val world 1.00e-02 1.4650e-02 1.9741e-02 2.6601e-02 3.5846e-02 4.8303e-02 6.5089e-02 8.7710e-02 1.1819e-01 1.5926e-01 2.1461e-01 2.8920e-01 3.8970e-01 5.2513e-01 7.0762e-01 9.5354e-01

variable Ntot equal 200000

#velocity        all create ${temp_val} 14903 loop geom

# enforce 2D dynamics
fix             enforce2d all enforce2d

pair_style	table linear 301
pair_coeff	1 1 ljgp.tab LJGP 2.5
WARNING: 1 of 301 force values in table LJGP are inconsistent with -dE/dr.
WARNING:  Should only be flagged at inflection points (../pair_table.cpp:466)

neighbor	0.3 bin
neigh_modify	every 20 delay 0 check no

timestep 0.0025
# TBEG=1.0 TEND=1.0 TDAMP=0.5
fix             1 all nvt temp ${temp_val} ${temp_val} $(100.0*dt)
fix             1 all nvt temp 2.8920e-01 ${temp_val} $(100.0*dt)
fix             1 all nvt temp 2.8920e-01 2.8920e-01 $(100.0*dt)
fix             1 all nvt temp 2.8920e-01 2.8920e-01 0.25

# output configuration every 500 steps
#dump 1 all atom 1000 dump.lammps.out
variable rep world 0 1 2 3 4 5 6 7 8 9 10 11 12 13 14 15
dump 1 all atom 40000 dump.temper.${rep}
dump 1 all atom 40000 dump.temper.11

thermo          2000
# run 5000 steps
#run             ${Ntot}

temper ${Ntot} 400 ${temp_val} 1 3847 58382
temper 200000 400 ${temp_val} 1 3847 58382
temper 200000 400 2.8920e-01 1 3847 58382
Generated 0 of 0 mixed pair_coeff terms from geometric mixing rule
Neighbor list info ...
  update: every = 20 steps, delay = 0 steps, check = no
  max neighbors/atom: 2000, page size: 100000
  master list distance cutoff = 2.8
  ghost atom cutoff = 2.8
  binsize = 1.4, bins = 27 27 1
  1 neighbor lists, perpetual/occasional/extra = 1 0 0
  (1) pair table, perpetual
      attributes: half, newton on
      pair build: half/bin/atomonly/newton
      stencil: half/bin/2d
      bin: standard
Per MPI rank memory allocation (min/avg/max) = 2.551 | 2.551 | 2.551 Mbytes
   Step          Temp          E_pair         E_mol          TotEng         Press     
         0   0             -1.5184298      0             -1.5184298     -2.8069358    
      2000   1.8377556e-25 -1.5184298      0             -1.5184298     -2.8069358    
      4000   0.99752768    -1.5934439      0             -0.59689039     0.14119462   
      6000   0.94595622    -1.8393123      0             -0.89427991     1.0109288    
      8000   0.96944553    -1.740091       0             -0.77159222     0.70270559   
     10000   0.93417008    -1.6992439      0             -0.76598606     0.92484928   
     12000   0.94762007    -1.7121816      0             -0.76548695     0.8048594    
     14000   0.93110179    -1.722494       0             -0.79230145     0.56934851   
     16000   0.92558031    -1.700246       0             -0.77556955     0.85321851   
     18000   0.93921839    -1.7454706      0             -0.80716945     0.78894115   
     20000   0.97647615    -1.6850474      0             -0.7095248      0.95014699   
     22000   0.95383013    -1.6680711      0             -0.71517248     1.0298372    
     24000   0.98287326    -1.707068       0             -0.72515459     0.6754382    
     26000   0.91364782    -1.6771754      0             -0.76441986     0.78478037   
     28000   0.91231425    -1.705815       0             -0.79439172     0.91348132   
     30000   0.90599495    -1.7186394      0             -0.81352925     0.67361551   
     32000   0.95397731    -1.6986542      0             -0.74560853     0.78290973   
     34000   1.0136875     -1.7050463      0             -0.69234874     0.79957284   
     36000   0.90931348    -1.686616       0             -0.7781905      1.0364244    
     38000   0.97191238    -1.7219906      0             -0.75102739     0.7092404    
     40000   0.96576337    -1.6692185      0             -0.70439827     0.91520869   
     42000   0.93851273    -1.7311902      0             -0.79359396     0.60714897   
     44000   0.93556752    -1.6899867      0             -0.75533278     0.68009921   
     46000   0.94828426    -1.6780686      0             -0.73071044     0.96151579   
     48000   0.9295971     -1.6977343      0             -0.769045       0.86489515   
     50000   0.93970973    -1.6969829      0             -0.75819081     0.97935059   
     52000   1.024994      -1.6859259      0             -0.66193281     0.95090979   
     54000   0.96770058    -1.7133956      0             -0.74663999     0.76883729   
     56000   0.96966524    -1.7006654      0             -0.73194713     1.0264856    
     58000   0.97679182    -1.724756       0             -0.74891809     0.9710692    
     60000   0.99181       -1.6696458      0             -0.67880436     0.96682749   
     62000   0.95390876    -1.6905099      0             -0.73753264     0.752037     
     64000   0.9292705     -1.7049466      0             -0.77658363     1.0873875    
     66000   0.91622018    -1.7049062      0             -0.7895808      0.90709801   
     68000   0.94270238    -1.7243839      0             -0.78260217     1.0048305    
     70000   0.96171877    -1.7206415      0             -0.75986195     0.7897928    
     72000   0.95957754    -1.6918518      0             -0.73321139     0.85307179   
     74000   0.94372622    -1.7052886      0             -0.76248397     0.79905181   
     76000   0.98070623    -1.7027405      0             -0.72299204     0.84767117   
     78000   0.96256266    -1.694944       0             -0.73332139     0.91557496   
     80000   0.98389024    -1.7133994      0             -0.73047003     0.96149254   
     82000   0.95612931    -1.7343419      0             -0.77914627     0.6996159    
     84000   0.94889784    -1.7077005      0             -0.75972929     0.74720239   
     86000   0.98051769    -1.7146889      0             -0.7351287      0.66087093   
     88000   0.96605812    -1.6682333      0             -0.70311856     0.88598303   
     90000   1.0233702     -1.6893361      0             -0.66696528     0.90140988   
     92000   1.0021026     -1.6861622      0             -0.68503819     1.0262319    
     94000   0.94897463    -1.6969332      0             -0.74888531     0.77555209   
     96000   0.93403135    -1.6932128      0             -0.76009363     0.88254742   
     98000   0.96020246    -1.6851705      0             -0.72590571     0.74342619   
    100000   0.94717091    -1.6815548      0             -0.73530891     1.1095649    
    102000   0.98826206    -1.6931462      0             -0.70584924     0.86265166   
    104000   0.9403726     -1.6920395      0             -0.75258526     0.76065224   
    106000   0.95211684    -1.7304695      0             -0.77928248     0.57056974   
    108000   0.89519039    -1.7140809      0             -0.81976475     0.80168715   
    110000   0.96085934    -1.7273731      0             -0.76745214     0.79303863   
    112000   0.92014289    -1.7016608      0             -0.78241645     1.0315509    
    114000   0.94748542    -1.6770304      0             -0.73047027     0.98653747   
    116000   0.96110829    -1.6987464      0             -0.73857668     0.91226093   
    118000   0.9568348     -1.7013204      0             -0.74542003     0.85396179   
    120000   0.97963531    -1.7144761      0             -0.73579744     0.78915872   
    122000   0.91794681    -1.7195823      0             -0.80253187     0.56488284   
    124000   0.95650848    -1.7460124      0             -0.79043803     0.73115654   
    126000   0.94199012    -1.6763543      0             -0.73528414     0.78610999   
    128000   1.0250726     -1.7197154      0             -0.69564392     0.74791136   
    130000   0.95075947    -1.6852238      0             -0.73539276     0.91009182   
    132000   0.94116579    -1.6841223      0             -0.74387565     0.82168567   
    134000   0.90720864    -1.6897978      0             -0.7834751      0.85867352   
    136000   0.92570507    -1.7092734      0             -0.78447232     0.76530881   
    138000   0.93313731    -1.6595114      0             -0.72728539     0.79198365   
    140000   0.95899875    -1.6739054      0             -0.71584313     1.1265003    
    142000   0.86558798    -1.6855147      0             -0.82077198     0.78648374   
    144000   0.93064925    -1.7120714      0             -0.78233103     0.82474912   
    146000   0.91657844    -1.7185626      0             -0.80287926     0.71817462   
    148000   0.95261864    -1.6826032      0             -0.73091483     0.80648408   
    150000   1.0059464     -1.7461417      0             -0.74117767     0.81608159   
    152000   0.97974657    -1.7005184      0             -0.72172858     0.80913997   
    154000   0.95494233    -1.6939985      0             -0.73998877     0.94282967   
    156000   0.9552063     -1.6893526      0             -0.73507907     0.88195835   
    158000   0.95504819    -1.6749435      0             -0.72082794     1.1039903    
    160000   0.95626576    -1.696245       0             -0.74091308     0.78368891   
    162000   0.95213443    -1.6950357      0             -0.7438311      0.79171437   
    164000   1.0004463     -1.6696663      0             -0.67019703     0.88371801   
    166000   0.9400259     -1.7066044      0             -0.7674965      0.9743422    
    168000   0.91331478    -1.6822365      0             -0.76981361     0.8652552    
    170000   0.98822007    -1.7005655      0             -0.71331048     0.72999557   
    172000   0.97532477    -1.6955299      0             -0.72115759     0.95195938   
    174000   0.96931423    -1.7184944      0             -0.75012679     0.83100032   
    176000   0.8989169     -1.7176711      0             -0.8196321      0.79526975   
    178000   0.93361165    -1.7135212      0             -0.78082129     0.69790443   
    180000   0.97116382    -1.7121421      0             -0.74192671     0.59283599   
    182000   0.9012618     -1.710129       0             -0.80974738     0.77557296   
    184000   0.94410729    -1.6928298      0             -0.74964446     0.99799642   
    186000   0.97625048    -1.6938662      0             -0.71856909     0.88129816   
    188000   0.96616827    -1.6935861      0             -0.72836135     0.76857568   
    190000   0.97412614    -1.692913       0             -0.71973818     0.81836296   
    192000   0.98277802    -1.6981757      0             -0.71635743     0.90533436   
    194000   0.95567143    -1.7163002      0             -0.76156205     0.69821125   
    196000   0.92566589    -1.7109279      0             -0.78616598     0.80312205   
    198000   0.9371403     -1.7095762      0             -0.77335104     0.88038752   
    200000   0.96052785    -1.708272       0             -0.7486822      0.76962056   
Loop time of 13.4517 on 4 procs for 200000 steps with 1024 atoms

Performance: 3211485.355 tau/day, 14867.988 timesteps/s, 15.225 Matom-step/s
100.0% CPU use with 4 MPI tasks x no OpenMP threads

MPI task timing breakdown:
Section |  min time  |  avg time  |  max time  |%varavg| %total
---------------------------------------------------------------
Pair    | 3.8849     | 3.927      | 3.9718     |   1.8 | 29.19
Neigh   | 0.56505    | 0.57132    | 0.57562    |   0.5 |  4.25
Comm    | 3.6444     | 3.8305     | 4.0182     |   7.6 | 28.48
Output  | 0.0024744  | 0.0027125  | 0.0029132  |   0.3 |  0.02
Modify  | 1.0586     | 1.2178     | 1.3756     |  13.7 |  9.05
Other   |            | 3.902      |            |       | 29.01

Nlocal:            256 ave         263 max         252 min
Histogram: 2 0 0 0 1 0 0 0 0 1
Nghost:            174 ave         179 max         169 min
Histogram: 1 0 0 1 0 0 0 1 0 1
Neighs:           2143 ave        2214 max        2072 min
Histogram: 2 0 0 0 0 0 0 0 0 2

Total # of neighbors = 8572
Ave neighs/atom = 8.3710938
Neighbor list builds = 10000
Dangerous builds not checked
Total wall time: 0:00:13
