LAMMPS (2 Aug 2023)
Processor partition = 5
# 2d Lennard-Jones melt

units		lj
dimension	2
atom_style	atomic
boundary 	p p p

read_data       lammp.xyz.init
Reading data file ...
  orthogonal box = (0 0 -0.5) to (37.712362 37.712362 0.5)
  2 by 2 by 1 MPI processor grid
  reading atoms ...
  1024 atoms
  read_data CPU = 0.008 seconds

variable temp_val world 1.00e-02 1.4650e-02 1.9741e-02 2.6601e-02 3.5846e-02 4.8303e-02 6.5089e-02 8.7710e-02 1.1819e-01 1.5926e-01 2.1461e-01 2.8920e-01 3.8970e-01 5.2513e-01 7.0762e-01 9.5354e-01

variable Ntot equal 200000

#velocity        all create ${temp_val} 14903 loop geom

# enforce 2D dynamics
fix             enforce2d all enforce2d

pair_style	table linear 301
pair_coeff	1 1 ljgp.tab LJGP 2.5
WARNING: 1 of 301 force values in table LJGP are inconsistent with -dE/dr.
WARNING:  Should only be flagged at inflection points (../pair_table.cpp:466)

neighbor	0.3 bin
neigh_modify	every 20 delay 0 check no

timestep 0.0025
# TBEG=1.0 TEND=1.0 TDAMP=0.5
fix             1 all nvt temp ${temp_val} ${temp_val} $(100.0*dt)
fix             1 all nvt temp 4.8303e-02 ${temp_val} $(100.0*dt)
fix             1 all nvt temp 4.8303e-02 4.8303e-02 $(100.0*dt)
fix             1 all nvt temp 4.8303e-02 4.8303e-02 0.25

# output configuration every 500 steps
#dump 1 all atom 1000 dump.lammps.out
variable rep world 0 1 2 3 4 5 6 7 8 9 10 11 12 13 14 15
dump 1 all atom 40000 dump.temper.${rep}
dump 1 all atom 40000 dump.temper.5

thermo          2000
# run 5000 steps
#run             ${Ntot}

temper ${Ntot} 400 ${temp_val} 1 3847 58382
temper 200000 400 ${temp_val} 1 3847 58382
temper 200000 400 4.8303e-02 1 3847 58382
Generated 0 of 0 mixed pair_coeff terms from geometric mixing rule
Neighbor list info ...
  update: every = 20 steps, delay = 0 steps, check = no
  max neighbors/atom: 2000, page size: 100000
  master list distance cutoff = 2.8
  ghost atom cutoff = 2.8
  binsize = 1.4, bins = 27 27 1
  1 neighbor lists, perpetual/occasional/extra = 1 0 0
  (1) pair table, perpetual
      attributes: half, newton on
      pair build: half/bin/atomonly/newton
      stencil: half/bin/2d
      bin: standard
Per MPI rank memory allocation (min/avg/max) = 2.551 | 2.551 | 2.551 Mbytes
   Step          Temp          E_pair         E_mol          TotEng         Press     
         0   0             -1.5184298      0             -1.5184298     -2.8069358    
      2000   1.8377572e-25 -1.5184298      0             -1.5184298     -2.8069358    
      4000   0.12614337    -1.600461       0             -1.4744409     -1.5760104    
      6000   0.048144308   -2.7136098      0             -2.6655125     -0.23006734   
      8000   0.034102808   -2.9246085      0             -2.890539      -0.12852833   
     10000   0.018784322   -3.0248838      0             -3.0061178     -0.022830521  
     12000   0.0098185077  -3.0653899      0             -3.0555809     -0.074551456  
     14000   0.0098445004  -3.0827396      0             -3.0729047     -0.061581546  
     16000   0.0094502518  -3.1069402      0             -3.0974992     -0.042570605  
     18000   0.026995055   -3.1031967      0             -3.076228      -0.078670739  
     20000   0.050208567   -3.108701       0             -3.0585415      0.056988308  
     22000   0.060758136   -3.1161424      0             -3.0554436     -0.043682373  
     24000   0.068117691   -3.1172122      0             -3.049161      -0.0095164817 
     26000   0.067746302   -3.1317471      0             -3.0640669      0.020419322  
     28000   0.082353108   -3.1162667      0             -3.0339941      0.19459328   
     30000   0.090969105   -3.1150009      0             -3.0241206     -0.094980564  
     32000   0.092233674   -3.120052       0             -3.0279084      0.048300709  
     34000   0.091293232   -3.1285261      0             -3.037322       0.16881861   
     36000   0.1173561     -3.0896005      0             -2.972359       0.098255784  
     38000   0.11598897    -3.0944417      0             -2.978566      -0.091594774  
     40000   0.12214953    -3.0912234      0             -2.9691931     -0.027716136  
     42000   0.11445139    -3.0961363      0             -2.9817966      0.010585825  
     44000   0.12191928    -3.1076981      0             -2.9858979      0.013523794  
     46000   0.089793922   -3.1490753      0             -3.059369      -0.085585942  
     48000   0.086329418   -3.1477787      0             -3.0615336     -0.12123175   
     50000   0.084766058   -3.1575816      0             -3.0728983     -0.19964201   
     52000   0.087010073   -3.1485958      0             -3.0616707     -0.14193471   
     54000   0.085367104   -3.1501383      0             -3.0648546     -0.015199925  
     56000   0.088821312   -3.1490937      0             -3.0603591     -0.11777657   
     58000   0.083866933   -3.1545569      0             -3.0707719     -0.13313795   
     60000   0.088934296   -3.1569337      0             -3.0680863     -0.090340085  
     62000   0.08965975    -3.1549637      0             -3.0653915     -0.094506695  
     64000   0.090944363   -3.1567414      0             -3.0658859     -0.13237591   
     66000   0.089149014   -3.1573104      0             -3.0682485     -0.038488736  
     68000   0.096383737   -3.1585081      0             -3.0622185     -0.0038220639 
     70000   0.083885501   -3.1598005      0             -3.0759969     -0.15167569   
     72000   0.087881949   -3.1563491      0             -3.0685529     -0.085829722  
     74000   0.089610597   -3.1550593      0             -3.0655362     -0.22076684   
     76000   0.12881206    -3.1190199      0             -2.9903336     -0.1395085    
     78000   0.12117621    -3.1196259      0             -2.998568      -0.14040152   
     80000   0.11332572    -3.1224274      0             -3.0092124     -0.13747848   
     82000   0.11785958    -3.1254721      0             -3.0077277     -0.15508188   
     84000   0.11793271    -3.1271626      0             -3.009345      -0.083634281  
     86000   0.11756405    -3.1207412      0             -3.003292      -0.083017927  
     88000   0.11949435    -3.1164685      0             -2.9970909      0.0045761693 
     90000   0.12281168    -3.1278238      0             -3.005132      -0.068223883  
     92000   0.11139313    -3.1212843      0             -3.0099999     -0.056303334  
     94000   0.12682793    -3.1274797      0             -3.0007757     -0.12950196   
     96000   0.11371289    -3.1290134      0             -3.0154116     -0.028763595  
     98000   0.12233916    -3.1266169      0             -3.0043972     -0.23552777   
    100000   0.11275348    -3.1274969      0             -3.0148535     -0.080235397  
    102000   0.12346417    -3.1266694      0             -3.0033258     -0.075784737  
    104000   0.12241331    -3.1264598      0             -3.004166      -0.066459158  
    106000   0.11727632    -3.1320031      0             -3.0148413     -0.10735689   
    108000   0.11671488    -3.1360138      0             -3.0194129     -0.10433674   
    110000   0.11541256    -3.127266       0             -3.0119661     -0.11106904   
    112000   0.11895893    -3.1279839      0             -3.0091411     -0.083626348  
    114000   0.12056235    -3.1244991      0             -3.0040545     -0.0026504394 
    116000   0.11918058    -3.1361391      0             -3.0170749     -0.073354229  
    118000   0.12024825    -3.1409454      0             -3.0208146     -0.090882224  
    120000   0.11516273    -3.1300164      0             -3.0149661     -0.22032188   
    122000   0.11543314    -3.1370044      0             -3.021684      -0.036081791  
    124000   0.12154039    -3.1397378      0             -3.0183161     -0.16165624   
    126000   0.12221008    -3.1302833      0             -3.0081925     -0.14976237   
    128000   0.11217806    -3.1369147      0             -3.0248462     -0.013066461  
    130000   0.12579894    -3.1361164      0             -3.0104403     -0.14798773   
    132000   0.11210421    -3.1488652      0             -3.0368704     -0.051897345  
    134000   0.12401157    -3.1412202      0             -3.0173297     -0.053924379  
    136000   0.11917619    -3.1372151      0             -3.0181553     -0.061564517  
    138000   0.11900377    -3.1365198      0             -3.0176322     -0.067251285  
    140000   0.12035589    -3.142027       0             -3.0217886     -0.08794048   
    142000   0.11902454    -3.1491653      0             -3.030257      -0.14750725   
    144000   0.11173613    -3.1462993      0             -3.0346722     -0.005063438  
    146000   0.11910854    -3.1414749      0             -3.0224827     -0.12310102   
    148000   0.12004305    -3.1444055      0             -3.0244797     -0.062769934  
    150000   0.11481618    -3.1429554      0             -3.0282513     -0.13847685   
    152000   0.11721289    -3.1400755      0             -3.022977      -0.031847566  
    154000   0.12141782    -3.139115       0             -3.0178157     -0.039796967  
    156000   0.11620403    -3.1534738      0             -3.0373832     -0.076594227  
    158000   0.11447243    -3.1387852      0             -3.0244246     -0.16648119   
    160000   0.12372474    -3.1430959      0             -3.019492      -0.16284211   
    162000   0.12082409    -3.143905       0             -3.0231989     -0.03497499   
    164000   0.12750538    -3.1478008      0             -3.0204199     -0.057158967  
    166000   0.12900797    -3.1375446      0             -3.0086626     -0.05479111   
    168000   0.11970371    -3.1422107      0             -3.0226239     -0.044475733  
    170000   0.11910473    -3.1418863      0             -3.0228979     -0.1616555    
    172000   0.11452299    -3.1457179      0             -3.0313067     -0.050850199  
    174000   0.11489436    -3.147445       0             -3.0326628     -0.14263929   
    176000   0.1170719     -3.1509942      0             -3.0340366     -0.074499506  
    178000   0.11645324    -3.1468711      0             -3.0305316     -0.10425643   
    180000   0.11953189    -3.1565819      0             -3.0371668     -0.10769573   
    182000   0.1215394     -3.1441435      0             -3.0227228     -0.042754567  
    184000   0.12029931    -3.1502166      0             -3.0300348     -0.015479724  
    186000   0.11817904    -3.1586184      0             -3.0405548     -0.16613881   
    188000   0.12149085    -3.1536217      0             -3.0322495     -0.23046259   
    190000   0.11568796    -3.1465635      0             -3.0309886     -0.051099642  
    192000   0.12177039    -3.1477799      0             -3.0261284     -0.014318114  
    194000   0.11791529    -3.1474572      0             -3.0296571     -0.10770512   
    196000   0.12620303    -3.1458148      0             -3.019735       0.0042060643 
    198000   0.11794032    -3.1504778      0             -3.0326527     -0.050812173  
    200000   0.12354747    -3.1498509      0             -3.0264241     -0.1127196    
Loop time of 13.4516 on 4 procs for 200000 steps with 1024 atoms

Performance: 3211502.471 tau/day, 14868.067 timesteps/s, 15.225 Matom-step/s
100.0% CPU use with 4 MPI tasks x no OpenMP threads

MPI task timing breakdown:
Section |  min time  |  avg time  |  max time  |%varavg| %total
---------------------------------------------------------------
Pair    | 3.8919     | 4.794      | 6.1769     |  41.9 | 35.64
Neigh   | 0.35335    | 0.45075    | 0.59826    |  14.2 |  3.35
Comm    | 3.4322     | 5.0349     | 6.0239     |  47.1 | 37.43
Output  | 0.0024732  | 0.0026772  | 0.0028635  |   0.3 |  0.02
Modify  | 1.1283     | 1.1867     | 1.2541     |   4.2 |  8.82
Other   |            | 1.983      |            |       | 14.74

Nlocal:            256 ave         322 max         198 min
Histogram: 1 0 1 0 0 0 1 0 0 1
Nghost:          130.5 ave         142 max         118 min
Histogram: 1 0 0 0 1 0 1 0 0 1
Neighs:           3226 ave        4178 max        2513 min
Histogram: 1 1 0 0 0 1 0 0 0 1

Total # of neighbors = 12904
Ave neighs/atom = 12.601562
Neighbor list builds = 10000
Dangerous builds not checked
Total wall time: 0:00:13
