LAMMPS (2 Aug 2023)
Running on 16 partitions of processors
Step T0 T1 T2 T3 T4 T5 T6 T7 T8 T9 T10 T11 T12 T13 T14 T15
0 0 1 2 3 4 5 6 7 8 9 10 11 12 13 14 15
400 1 0 3 2 5 4 7 6 9 8 11 10 13 12 15 14
800 0 1 2 3 4 5 6 7 8 9 10 11 12 13 14 15
1200 0 2 1 4 3 6 5 8 7 10 9 12 11 14 13 15
1600 1 3 0 5 2 7 4 9 6 11 8 13 10 15 12 14
2000 2 4 0 6 1 8 3 10 5 12 7 14 9 15 11 13
2400 3 5 1 7 0 9 2 11 4 13 6 15 8 14 10 12
2800 4 6 2 8 0 10 1 12 3 14 5 15 7 13 9 11
3200 3 5 1 7 0 9 2 11 4 13 6 15 8 14 10 12
3600 2 4 0 6 1 8 3 10 5 12 7 15 9 14 11 13
4000 1 3 0 5 2 7 4 9 6 11 8 15 10 14 12 13
4400 0 2 1 4 3 6 5 8 7 10 9 15 11 14 13 12
4800 0 2 1 4 3 6 5 8 7 10 9 15 11 14 13 12
5200 0 1 2 3 4 5 6 7 8 9 10 15 11 14 13 12
5600 0 1 2 3 4 5 6 7 8 9 10 15 11 14 13 12
6000 0 1 2 3 4 5 6 7 8 9 10 15 11 14 13 12
6400 0 1 2 3 4 5 6 7 8 9 10 15 11 14 13 12
6800 0 1 2 3 4 5 6 7 8 9 10 15 11 14 13 12
7200 0 1 2 3 4 5 6 7 8 9 10 15 11 14 13 12
7600 1 0 3 2 5 4 7 6 9 8 10 15 11 14 13 12
8000 1 0 3 2 5 4 7 6 9 8 10 15 11 14 13 12
8400 1 0 3 2 5 4 7 6 9 8 10 15 11 14 13 12
8800 1 0 3 2 5 4 7 6 9 8 10 15 11 14 13 12
9200 2 0 4 1 6 3 8 5 9 7 10 15 11 14 13 12
9600 3 1 5 0 7 2 9 4 8 6 10 15 11 14 13 12
10000 3 1 5 0 7 2 9 4 8 6 10 15 11 14 13 12
10400 3 1 5 0 7 2 9 4 8 6 11 15 10 14 13 12
10800 4 2 6 0 8 1 10 3 7 5 11 15 9 14 13 12
11200 4 2 6 0 8 1 10 3 7 5 11 15 9 14 13 12
11600 5 3 7 1 9 0 10 2 6 4 11 15 8 14 13 12
12000 5 3 7 1 9 0 10 2 6 4 11 15 8 14 13 12
12400 5 3 7 1 9 0 10 2 6 4 11 15 8 14 13 12
12800 5 3 7 1 9 0 10 2 6 4 11 15 8 14 13 12
13200 6 4 8 2 9 0 10 1 5 3 11 15 7 14 13 12
13600 6 4 8 2 9 0 10 1 5 3 11 15 7 14 13 12
14000 6 4 8 2 9 0 10 1 5 3 11 15 7 14 13 12
14400 6 4 8 2 9 0 10 1 5 3 11 15 7 14 13 12
14800 6 4 8 2 9 0 10 1 5 3 11 15 7 14 13 12
15200 6 4 8 2 9 0 10 1 5 3 11 15 7 14 13 12
15600 6 4 8 2 9 0 10 1 5 3 11 15 7 14 13 12
16000 7 5 9 3 8 1 10 0 4 2 11 15 6 14 13 12
16400 7 5 9 3 8 1 10 0 4 2 11 15 6 14 13 12
16800 8 6 9 4 7 2 10 0 3 1 11 15 5 14 13 12
17200 9 7 8 5 6 3 10 1 2 0 11 15 4 14 13 12
17600 9 7 8 5 6 3 10 1 2 0 11 15 4 14 13 12
18000 9 7 8 5 6 3 10 1 2 0 11 15 4 14 13 12
18400 9 7 8 6 5 4 10 1 2 0 11 15 3 14 13 12
18800 10 7 8 6 5 4 9 2 1 0 11 15 3 14 13 12
19200 11 6 8 7 4 5 9 3 1 0 10 15 2 14 13 12
19600 11 6 8 7 4 5 9 3 1 0 10 15 2 14 13 12
20000 11 5 8 7 3 6 10 4 2 0 9 15 1 14 13 12
20400 12 5 8 7 3 6 10 4 2 0 9 15 1 14 13 11
20800 12 5 8 7 3 6 10 4 2 0 9 15 1 14 13 11
21200 12 5 8 7 3 6 10 4 2 0 9 15 1 14 13 11
21600 12 5 8 7 3 6 10 4 2 0 9 15 1 14 13 11
22000 12 4 9 7 2 6 11 5 3 1 8 15 0 14 13 10
22400 12 3 10 8 2 5 11 6 4 1 7 15 0 14 13 9
22800 12 3 10 8 2 5 11 6 4 1 7 15 0 14 13 9
23200 12 2 10 9 3 5 11 7 4 1 6 15 0 14 13 8
23600 12 2 10 9 3 6 11 8 4 1 5 15 0 14 13 7
24000 12 2 10 9 3 6 11 8 4 1 5 15 0 14 13 7
24400 12 2 10 9 3 7 11 8 5 1 4 15 0 14 13 6
24800 12 2 10 9 4 7 11 8 6 1 3 15 0 14 13 5
25200 12 3 10 8 5 6 11 9 7 1 2 15 0 14 13 4
25600 12 3 10 8 5 6 11 9 7 1 2 15 0 14 13 4
26000 12 4 10 7 5 6 11 9 8 2 1 15 0 14 13 3
26400 12 4 10 6 5 7 11 9 8 3 0 15 1 14 13 2
26800 12 4 10 5 6 7 11 9 8 3 0 15 2 14 13 1
27200 12 5 10 4 6 7 11 9 8 3 1 15 2 14 13 0
27600 12 5 10 4 6 7 11 9 8 3 1 15 2 14 13 0
28000 12 5 10 3 6 7 11 9 8 4 1 15 2 14 13 0
28400 12 5 10 2 6 7 11 9 8 4 1 15 3 14 13 0
28800 12 5 10 2 6 7 11 9 8 4 1 15 3 14 13 0
29200 12 5 10 2 6 7 11 9 8 4 1 15 3 14 13 0
29600 12 5 10 2 6 7 11 9 8 4 1 15 3 14 13 0
30000 12 5 10 2 6 7 11 9 8 4 1 15 3 14 13 0
30400 12 5 10 2 6 7 11 9 8 4 1 15 3 14 13 0
30800 12 5 10 2 6 7 11 9 8 4 1 15 3 14 13 0
31200 12 5 10 2 6 7 11 9 8 4 1 15 3 14 13 0
31600 12 5 10 2 6 7 11 9 8 4 1 15 3 14 13 0
32000 12 5 10 2 6 7 11 9 8 4 1 15 3 14 13 0
32400 12 5 10 2 6 7 11 9 8 4 1 15 3 14 13 0
32800 12 5 10 2 6 7 11 9 8 4 1 15 3 14 13 0
33200 12 5 10 2 6 7 11 9 8 4 1 15 3 14 13 0
33600 12 5 10 2 6 7 11 9 8 4 1 15 3 14 13 0
34000 12 5 10 2 6 7 11 9 8 4 1 15 3 14 13 0
34400 12 5 10 2 6 7 11 9 8 4 1 15 3 14 13 0
34800 12 5 10 2 6 7 11 9 8 4 1 15 3 14 13 0
35200 12 5 10 2 6 7 11 9 8 4 1 15 3 14 13 0
35600 12 5 10 2 6 8 11 9 7 4 1 15 3 14 13 0
36000 12 5 10 2 7 8 11 9 6 4 1 15 3 14 13 0
36400 12 5 10 2 7 8 11 9 6 4 1 15 3 14 13 0
36800 12 5 10 2 7 8 11 9 6 4 1 15 3 14 13 0
37200 12 5 10 2 7 8 11 9 6 4 1 15 3 14 13 0
37600 12 6 10 2 7 8 11 9 5 4 1 15 3 14 13 0
38000 12 6 10 2 7 8 11 9 5 4 1 15 3 14 13 0
38400 12 6 10 2 7 8 11 9 5 4 1 15 3 14 13 0
38800 12 6 10 2 7 8 11 9 5 4 1 15 3 14 13 0
39200 12 6 10 2 7 8 11 9 5 4 1 15 3 14 13 0
39600 12 6 10 2 7 8 11 9 5 4 1 15 3 14 13 0
40000 12 6 10 2 7 8 11 9 5 4 1 15 3 14 13 0
40400 12 6 10 2 7 8 11 9 5 4 1 15 3 14 13 0
40800 12 6 10 2 7 8 11 9 5 4 1 15 3 14 13 0
41200 12 6 10 2 7 8 11 9 5 4 1 15 3 14 13 0
41600 12 6 10 2 7 8 11 9 5 4 1 15 3 14 13 0
42000 12 6 10 2 7 8 11 9 5 4 1 15 3 14 13 0
42400 12 6 10 2 7 8 11 9 5 4 1 15 3 14 13 0
42800 12 6 10 2 7 8 11 9 5 4 1 15 3 14 13 0
43200 12 6 10 2 7 8 11 9 5 4 1 15 3 14 13 0
43600 12 6 10 2 7 8 11 9 5 4 1 15 3 14 13 0
44000 12 6 10 2 7 8 11 9 5 4 1 15 3 14 13 0
44400 12 6 10 2 7 8 11 9 5 4 1 15 3 14 13 0
44800 12 6 10 2 7 8 11 9 5 4 1 15 3 14 13 0
45200 12 6 10 2 7 8 11 9 5 4 1 15 3 14 13 0
45600 12 6 10 2 8 7 11 9 5 4 1 15 3 14 13 0
46000 12 6 10 2 8 7 11 9 5 4 1 15 3 14 13 0
46400 12 6 10 2 9 7 11 8 5 4 1 15 3 14 13 0
46800 12 6 9 2 10 7 11 8 5 4 1 15 3 14 13 0
47200 12 6 9 2 10 7 11 8 5 4 1 15 3 14 13 0
47600 12 6 9 2 11 7 10 8 5 4 1 15 3 14 13 0
48000 12 6 9 2 11 7 10 8 5 4 1 15 3 14 13 0
48400 12 6 9 2 11 7 10 8 5 4 1 15 3 14 13 0
48800 12 6 9 2 11 7 10 8 5 4 1 15 3 14 13 0
49200 12 6 9 2 11 7 10 8 5 4 1 15 3 14 13 0
49600 12 6 9 2 11 7 10 8 5 4 1 15 3 14 13 0
50000 12 6 9 2 11 7 10 8 5 4 1 15 3 14 13 0
50400 12 6 9 2 11 7 10 8 5 4 1 15 3 14 13 0
50800 12 6 9 2 11 7 10 8 5 4 1 15 3 14 13 0
51200 12 6 9 2 11 7 10 8 5 4 1 15 3 14 13 0
51600 12 6 9 2 11 7 10 8 5 4 1 15 3 14 13 0
52000 12 6 9 2 11 7 10 8 5 4 1 15 3 14 13 0
52400 12 6 9 2 11 7 10 8 5 4 1 15 3 14 13 0
52800 12 6 9 2 11 7 10 8 5 4 1 15 3 14 13 0
53200 12 6 9 2 11 7 10 8 5 4 1 15 3 14 13 0
53600 12 6 9 2 11 7 10 8 5 4 1 15 3 14 13 0
54000 12 6 9 2 11 7 10 8 5 4 1 15 3 14 13 0
54400 12 6 9 2 11 7 10 8 5 4 1 15 3 14 13 0
54800 12 6 9 2 11 7 10 8 5 4 1 15 3 14 13 0
55200 12 6 9 2 11 7 10 8 5 4 1 15 3 14 13 0
55600 12 6 9 2 11 7 10 8 5 4 1 15 3 14 13 0
56000 12 6 9 2 11 7 10 8 5 4 1 15 3 14 13 0
56400 12 6 9 2 11 7 10 8 5 4 1 15 3 14 13 0
56800 12 6 9 2 11 7 10 8 5 4 1 15 3 14 13 0
57200 12 6 9 2 11 7 10 8 5 4 1 15 3 14 13 0
57600 12 6 9 2 11 7 10 8 5 4 1 15 3 14 13 0
58000 12 6 9 2 11 7 10 8 5 4 1 15 3 14 13 0
58400 12 6 9 2 11 7 10 8 5 4 1 15 3 14 13 0
58800 12 6 9 2 11 7 10 8 5 4 1 15 3 14 13 0
59200 12 6 9 2 11 7 10 8 5 4 1 15 3 14 13 0
59600 12 6 9 2 11 7 10 8 5 4 1 15 3 14 13 0
60000 12 6 9 2 11 7 10 8 5 4 1 15 3 14 13 0
60400 12 6 9 2 11 7 10 8 5 4 1 15 3 14 13 0
60800 12 6 9 2 11 7 10 8 5 4 1 15 3 14 13 0
61200 12 6 9 2 11 7 10 8 5 4 1 15 3 14 13 0
61600 12 6 9 2 11 7 10 8 5 4 1 15 3 14 13 0
62000 12 6 9 2 11 7 10 8 5 4 1 15 3 14 13 0
62400 12 6 9 2 11 7 10 8 5 4 1 15 3 14 13 0
62800 12 6 9 2 11 7 10 8 5 4 1 15 3 14 13 0
63200 12 6 9 2 11 7 10 8 5 4 1 15 3 14 13 0
63600 12 6 9 2 11 7 10 8 5 4 1 15 3 14 13 0
64000 12 6 9 2 11 7 10 8 5 4 1 15 3 14 13 0
64400 12 6 9 2 11 7 10 8 5 4 1 15 3 14 13 0
64800 12 6 9 2 11 7 10 8 5 4 1 15 3 14 13 0
65200 12 6 9 2 11 7 10 8 5 4 1 15 3 14 13 0
65600 12 6 9 2 11 7 10 8 5 4 1 15 3 14 13 0
66000 12 6 9 2 11 7 10 8 5 4 1 15 3 14 13 0
66400 12 6 9 2 11 7 10 8 5 4 1 15 3 14 13 0
66800 12 6 9 2 11 7 10 8 5 4 1 15 3 14 13 0
67200 12 6 9 2 11 7 10 8 5 4 1 15 3 14 13 0
67600 12 6 9 2 11 7 10 8 5 4 1 15 3 14 13 0
68000 12 6 9 2 11 7 10 8 5 4 1 15 3 14 13 0
68400 12 6 9 2 11 7 10 8 5 4 1 15 3 14 13 0
68800 12 6 9 2 11 7 10 8 5 4 1 15 3 14 13 0
69200 12 6 9 2 11 7 10 8 5 4 1 15 3 14 13 0
69600 12 6 9 2 11 7 10 8 5 4 1 15 3 14 13 0
70000 12 6 9 2 11 7 10 8 5 4 1 15 3 14 13 0
70400 12 6 9 2 11 7 10 8 5 4 1 15 3 14 13 0
70800 12 5 9 2 11 7 10 8 6 4 1 15 3 14 13 0
71200 12 5 9 2 11 7 10 8 6 4 1 15 3 14 13 0
71600 12 5 9 2 11 7 10 8 6 4 1 15 3 14 13 0
72000 12 5 10 2 11 7 9 8 6 4 1 15 3 14 13 0
72400 12 5 10 2 11 7 9 8 6 4 1 15 3 14 13 0
72800 12 5 10 2 11 7 9 8 6 4 1 15 3 14 13 0
73200 12 4 10 2 11 7 8 9 6 5 1 15 3 14 13 0
73600 12 4 10 2 11 7 8 9 6 5 1 15 3 14 13 0
74000 12 3 10 2 11 8 7 9 6 5 1 15 4 14 13 0
74400 12 3 10 2 11 8 6 9 7 5 1 15 4 14 13 0
74800 12 3 10 2 11 8 6 9 7 5 1 15 4 14 13 0
75200 12 3 10 2 11 8 5 9 7 6 1 15 4 14 13 0
75600 12 3 10 2 11 8 4 9 7 6 1 15 5 14 13 0
76000 12 4 10 2 11 8 3 9 7 6 1 15 5 14 13 0
76400 12 4 10 2 11 8 3 9 7 6 1 15 5 14 13 0
76800 12 4 10 3 11 8 2 9 7 6 1 15 5 14 13 0
77200 12 4 10 3 11 8 2 9 7 6 1 15 5 14 13 0
77600 12 4 10 3 11 8 2 9 7 6 1 15 5 14 13 0
78000 12 4 10 3 11 8 2 9 7 6 1 15 5 14 13 0
78400 12 4 10 3 11 8 2 9 7 6 1 15 5 14 13 0
78800 12 4 10 3 11 8 2 9 7 6 1 15 5 14 13 0
79200 12 4 10 3 11 8 2 9 7 6 1 15 5 14 13 0
79600 12 4 10 3 11 8 2 9 7 6 1 15 5 14 13 0
80000 12 4 10 3 11 8 2 9 7 6 1 15 5 14 13 0
80400 12 4 10 3 11 8 2 9 7 6 1 15 5 14 13 0
80800 12 4 10 3 11 8 2 9 7 6 1 15 5 14 13 0
81200 12 4 10 3 11 8 2 9 7 6 1 15 5 14 13 0
81600 12 4 10 3 11 8 2 9 7 6 1 15 5 14 13 0
82000 12 4 10 3 11 8 2 9 7 6 1 15 5 14 13 0
82400 12 4 10 3 11 8 2 9 7 6 1 15 5 14 13 0
82800 12 4 10 3 11 8 2 9 7 6 1 15 5 14 13 0
83200 12 4 10 3 11 8 2 9 7 6 1 15 5 14 13 0
83600 12 4 10 3 11 8 2 9 7 6 1 15 5 14 13 0
84000 12 4 10 3 11 8 2 9 7 6 1 15 5 14 13 0
84400 12 4 10 3 11 8 2 9 7 6 1 15 5 14 13 0
84800 12 4 10 3 11 8 2 9 7 6 1 15 5 14 13 0
85200 12 4 10 3 11 8 2 9 7 6 1 15 5 14 13 0
85600 12 4 10 3 11 8 2 9 7 6 1 15 5 14 13 0
86000 12 4 10 3 11 8 2 9 7 6 1 15 5 14 13 0
86400 12 4 10 3 11 8 2 9 7 6 1 15 5 14 13 0
86800 12 4 10 3 11 8 2 9 7 6 1 15 5 14 13 0
87200 12 4 10 3 11 8 2 9 7 6 1 15 5 14 13 0
87600 12 4 10 3 11 8 2 9 7 6 1 15 5 14 13 0
88000 12 4 10 3 11 8 2 9 7 6 1 15 5 14 13 0
88400 12 4 10 3 11 8 2 9 7 6 1 15 5 14 13 0
88800 12 4 10 3 11 8 2 9 7 6 1 15 5 14 13 0
89200 12 4 10 3 11 8 2 9 7 6 1 15 5 14 13 0
89600 12 4 10 3 11 8 2 9 7 6 1 15 5 14 13 0
90000 12 4 10 3 11 8 2 9 7 6 1 15 5 14 13 0
90400 12 4 10 3 11 8 2 9 7 6 1 15 5 14 13 0
90800 12 4 10 3 11 8 2 9 7 6 1 15 5 14 13 0
91200 12 4 10 3 11 8 2 9 7 6 1 15 5 14 13 0
91600 12 4 10 3 11 8 2 9 7 6 1 15 5 14 13 0
92000 12 4 10 3 11 8 2 9 7 6 1 15 5 14 13 0
92400 12 4 10 3 11 8 2 9 7 6 1 15 5 14 13 0
92800 12 4 10 3 11 8 2 9 7 6 1 15 5 14 13 0
93200 12 4 10 3 11 8 2 9 7 6 1 15 5 14 13 0
93600 12 4 10 3 11 8 2 9 7 6 1 15 5 14 13 0
94000 12 4 10 3 11 8 2 9 7 6 1 15 5 14 13 0
94400 12 4 10 3 11 8 2 9 7 6 1 15 5 14 13 0
94800 12 4 10 3 11 8 2 9 7 6 1 15 5 14 13 0
95200 12 4 10 3 11 8 2 9 7 6 1 15 5 14 13 0
95600 12 4 10 3 11 8 2 9 7 6 1 15 5 14 13 0
96000 12 4 10 3 11 8 2 9 7 6 1 15 5 14 13 0
96400 12 4 10 3 11 8 2 9 7 6 1 15 5 14 13 0
96800 12 4 10 3 11 8 2 9 7 6 1 15 5 14 13 0
97200 12 4 10 3 11 8 2 9 7 6 1 15 5 14 13 0
97600 12 4 10 3 11 8 2 9 7 6 1 15 5 14 13 0
98000 12 4 10 3 11 8 2 9 7 6 1 15 5 14 13 0
98400 12 4 10 3 11 8 2 9 7 6 1 15 5 14 13 0
98800 12 4 10 3 11 8 2 9 7 6 1 15 5 14 13 0
99200 12 4 10 3 11 8 2 9 7 6 1 15 5 14 13 0
99600 12 4 10 3 11 8 2 9 7 6 1 15 5 14 13 0
100000 12 4 10 3 11 8 2 9 7 6 1 15 5 14 13 0
100400 12 4 10 3 11 8 2 9 7 6 1 15 5 14 13 0
100800 12 4 10 3 11 8 2 9 7 6 1 15 5 14 13 0
101200 12 4 10 3 11 8 2 9 7 6 1 15 5 14 13 0
101600 12 4 10 3 11 8 2 9 7 6 1 15 5 14 13 0
102000 12 4 10 3 11 8 2 9 7 6 1 15 5 14 13 0
102400 12 4 10 3 11 8 2 9 7 6 1 15 5 14 13 0
102800 12 4 10 3 11 8 2 9 7 6 1 15 5 14 13 0
103200 12 4 10 3 11 8 2 9 7 6 1 15 5 14 13 0
103600 12 4 10 3 11 8 2 9 7 6 1 15 5 14 13 0
104000 12 4 10 3 11 8 2 9 7 6 1 15 5 14 13 0
104400 12 4 10 3 11 8 2 9 7 6 1 15 5 14 13 0
104800 12 4 10 3 11 8 2 9 7 6 1 15 5 14 13 0
105200 12 4 10 3 11 8 2 9 7 6 1 15 5 14 13 0
105600 12 4 10 3 11 8 2 9 7 6 1 15 5 14 13 0
106000 12 4 10 3 11 8 2 9 7 6 1 15 5 14 13 0
106400 12 4 10 3 11 8 2 9 7 6 1 15 5 14 13 0
106800 12 4 10 3 11 8 2 9 7 6 1 15 5 14 13 0
107200 12 4 10 3 11 8 2 9 7 6 1 15 5 14 13 0
107600 12 4 10 3 11 8 2 9 7 6 1 15 5 14 13 0
108000 12 4 10 3 11 8 2 9 7 6 1 15 5 14 13 0
108400 12 4 10 3 11 8 2 9 7 6 1 15 5 14 13 0
108800 12 4 10 3 11 8 2 9 7 6 1 15 5 14 13 0
109200 12 4 10 3 11 8 2 9 7 6 1 15 5 14 13 0
109600 12 4 10 3 11 8 2 9 7 6 1 15 5 14 13 0
110000 12 4 10 3 11 8 2 9 7 6 1 15 5 14 13 0
110400 12 4 10 3 11 8 2 9 7 6 1 15 5 14 13 0
110800 12 4 10 3 11 8 2 9 7 6 1 15 5 14 13 0
111200 12 4 10 3 11 8 2 9 7 6 1 15 5 14 13 0
111600 12 4 10 3 11 8 2 9 7 6 1 15 5 14 13 0
112000 12 4 10 3 11 8 2 9 7 6 1 15 5 14 13 0
112400 12 4 10 3 11 8 2 9 7 6 1 15 5 14 13 0
112800 12 4 10 3 11 8 2 9 7 6 1 15 5 14 13 0
113200 12 4 10 3 11 8 2 9 7 6 1 15 5 14 13 0
113600 12 4 10 3 11 8 2 9 7 6 1 15 5 14 13 0
114000 12 4 10 3 11 8 2 9 7 6 1 15 5 14 13 0
114400 12 4 10 3 11 8 2 9 7 6 1 15 5 14 13 0
114800 12 4 10 3 11 8 2 9 7 6 1 15 5 14 13 0
115200 12 4 10 3 11 8 2 9 7 6 1 15 5 14 13 0
115600 12 4 10 3 11 8 2 9 7 6 1 15 5 14 13 0
116000 12 4 10 3 11 8 2 9 7 6 1 15 5 14 13 0
116400 12 4 10 3 11 8 2 9 7 6 1 15 5 14 13 0
116800 12 4 10 3 11 8 2 9 7 6 1 15 5 14 13 0
117200 12 4 10 3 11 8 2 9 7 6 1 15 5 14 13 0
117600 12 4 10 3 11 8 2 9 7 6 1 15 5 14 13 0
118000 12 4 10 3 11 8 2 9 7 6 1 15 5 14 13 0
118400 12 4 10 3 11 8 2 9 7 6 1 15 5 14 13 0
118800 12 4 10 3 11 8 2 9 7 6 1 15 5 14 13 0
119200 12 4 10 3 11 8 2 9 7 6 1 15 5 14 13 0
119600 12 4 10 3 11 8 2 9 7 6 1 15 5 14 13 0
120000 12 4 10 3 11 8 2 9 7 6 1 15 5 14 13 0
120400 12 4 10 3 11 8 2 9 7 6 1 15 5 14 13 0
120800 12 4 10 3 11 8 2 9 7 6 1 15 5 14 13 0
121200 12 4 10 3 11 8 2 9 7 6 1 15 5 14 13 0
121600 12 4 10 3 11 8 2 9 7 6 1 15 5 14 13 0
122000 12 4 10 3 11 8 2 9 7 6 1 15 5 14 13 0
122400 12 4 10 3 11 8 2 9 7 6 1 15 5 14 13 0
122800 12 4 10 3 11 8 2 9 7 6 1 15 5 14 13 0
123200 12 4 10 3 11 8 2 9 7 6 1 15 5 14 13 0
123600 12 4 10 3 11 8 2 9 7 6 1 15 5 14 13 0
124000 12 4 10 3 11 8 2 9 7 6 1 15 5 14 13 0
124400 12 4 10 3 11 8 2 9 7 6 1 15 5 14 13 0
124800 12 4 10 3 11 8 2 9 7 6 1 15 5 14 13 0
125200 12 4 10 3 11 8 2 9 7 6 1 15 5 14 13 0
125600 12 4 10 3 11 8 2 9 7 6 1 15 5 14 13 0
126000 12 4 10 3 11 8 2 9 7 6 1 15 5 14 13 0
126400 12 4 10 3 11 8 2 9 7 6 1 15 5 14 13 0
126800 12 4 10 3 11 8 2 9 7 6 1 15 5 14 13 0
127200 12 4 10 3 11 8 2 9 7 6 1 15 5 14 13 0
127600 12 4 10 3 11 8 2 9 7 6 1 15 5 14 13 0
128000 12 4 10 3 11 8 2 9 7 6 1 15 5 14 13 0
128400 12 4 10 3 11 8 2 9 7 6 1 15 5 14 13 0
128800 12 4 10 3 11 8 2 9 7 6 1 15 5 14 13 0
129200 12 4 10 3 11 8 2 9 7 6 1 15 5 14 13 0
129600 12 4 10 3 11 8 2 9 7 6 1 15 5 14 13 0
130000 12 4 10 3 11 8 2 9 7 6 1 15 5 14 13 0
130400 12 4 10 3 11 8 2 9 7 6 1 15 5 14 13 0
130800 12 4 10 3 11 8 2 9 7 6 1 15 5 14 13 0
131200 12 4 10 3 11 8 2 9 7 6 1 15 5 14 13 0
131600 12 4 10 3 11 8 2 9 7 6 1 15 5 14 13 0
132000 12 4 10 3 11 8 2 9 7 6 1 15 5 14 13 0
132400 12 4 10 3 11 8 2 9 7 6 1 15 5 14 13 0
132800 12 4 10 3 11 8 2 9 7 6 1 15 5 14 13 0
133200 12 4 10 3 11 8 2 9 7 6 1 15 5 14 13 0
133600 12 4 10 3 11 8 2 9 7 6 1 15 5 14 13 0
134000 12 4 10 3 11 8 2 9 7 6 1 15 5 14 13 0
134400 12 4 10 3 11 8 2 9 7 6 1 15 5 14 13 0
134800 12 4 10 3 11 8 2 9 7 6 1 15 5 14 13 0
135200 12 4 10 3 11 8 2 9 7 6 1 15 5 14 13 0
135600 12 4 10 3 11 8 2 9 7 6 1 15 5 14 13 0
136000 12 4 10 3 11 8 2 9 7 6 1 15 5 14 13 0
136400 12 4 10 3 11 8 2 9 7 6 1 15 5 14 13 0
136800 12 4 10 3 11 8 2 9 7 6 1 15 5 14 13 0
137200 12 4 10 3 11 8 2 9 7 6 1 15 5 14 13 0
137600 12 4 10 3 11 8 2 9 7 6 1 15 5 14 13 0
138000 12 4 10 3 11 8 2 9 7 6 1 15 5 14 13 0
138400 12 4 10 3 11 8 2 9 7 6 1 15 5 14 13 0
138800 12 4 10 3 11 8 2 9 7 6 1 15 5 14 13 0
139200 12 4 10 3 11 8 2 9 7 6 1 15 5 14 13 0
139600 12 4 10 3 11 8 2 9 7 6 1 15 5 14 13 0
140000 12 4 10 3 11 8 2 9 7 6 1 15 5 14 13 0
140400 12 4 10 3 11 8 2 9 7 6 1 15 5 14 13 0
140800 12 4 10 3 11 8 2 9 7 6 1 15 5 14 13 0
141200 12 4 10 3 11 8 2 9 7 6 1 15 5 14 13 0
141600 12 4 10 3 11 8 2 9 7 6 1 15 5 14 13 0
142000 12 4 10 3 11 8 2 9 7 6 1 15 5 14 13 0
142400 12 4 10 3 11 8 2 9 7 6 1 15 5 14 13 0
142800 12 4 10 3 11 8 2 9 7 6 1 15 5 14 13 0
143200 12 4 10 3 11 8 2 9 7 6 1 15 5 14 13 0
143600 12 4 10 3 11 8 2 9 7 6 1 15 5 14 13 0
144000 12 4 10 3 11 8 2 9 7 6 1 15 5 14 13 0
144400 12 4 10 3 11 8 2 9 7 6 1 15 5 14 13 0
144800 12 4 10 3 11 8 2 9 7 6 1 15 5 14 13 0
145200 12 4 10 3 11 8 2 9 7 6 1 15 5 14 13 0
145600 12 4 10 3 11 8 2 9 7 6 1 15 5 14 13 0
146000 12 4 10 3 11 8 2 9 7 6 1 15 5 14 13 0
146400 12 4 10 3 11 8 2 9 7 6 1 15 5 14 13 0
146800 12 4 10 3 11 8 2 9 7 6 1 15 5 14 13 0
147200 12 4 10 3 11 8 2 9 7 6 1 15 5 14 13 0
147600 12 4 10 3 11 8 2 9 7 6 1 15 5 14 13 0
148000 12 4 10 3 11 8 2 9 7 6 1 15 5 14 13 0
148400 12 4 10 3 11 8 2 9 7 6 1 15 5 14 13 0
148800 12 4 10 3 11 8 2 9 7 6 1 15 5 14 13 0
149200 12 4 10 3 11 8 2 9 7 6 1 15 5 14 13 0
149600 12 4 10 3 11 8 2 9 7 6 1 15 5 14 13 0
150000 12 4 10 3 11 8 2 9 7 6 1 15 5 14 13 0
150400 12 4 10 3 11 8 2 9 7 6 1 15 5 14 13 0
150800 12 4 10 3 11 8 2 9 7 6 1 15 5 14 13 0
151200 12 4 10 3 11 8 2 9 7 6 1 15 5 14 13 0
151600 12 4 10 3 11 8 2 9 7 6 1 15 5 14 13 0
152000 12 4 10 3 11 8 2 9 7 6 1 15 5 14 13 0
152400 12 4 10 3 11 8 2 9 7 6 1 15 5 14 13 0
152800 12 4 10 3 11 8 2 9 7 6 1 15 5 14 13 0
153200 12 4 10 3 11 8 2 9 7 6 1 15 5 14 13 0
153600 12 4 10 3 11 8 2 9 7 6 1 15 5 14 13 0
154000 12 4 10 3 11 8 2 9 7 6 1 15 5 14 13 0
154400 12 4 10 3 11 8 2 9 7 6 1 15 5 14 13 0
154800 12 4 10 3 11 8 2 9 7 6 1 15 5 14 13 0
155200 12 4 10 3 11 8 2 9 7 6 1 15 5 14 13 0
155600 12 4 10 3 11 8 2 9 7 6 1 15 5 14 13 0
156000 12 4 10 3 11 8 2 9 7 6 1 15 5 14 13 0
156400 12 4 10 3 11 8 2 9 7 6 1 15 5 14 13 0
156800 12 4 10 3 11 8 2 9 7 6 1 15 5 14 13 0
157200 12 4 10 3 11 8 2 9 7 6 1 15 5 14 13 0
157600 12 4 10 3 11 8 2 9 7 6 1 15 5 14 13 0
158000 12 4 10 3 11 8 2 9 7 6 1 15 5 14 13 0
158400 12 4 10 3 11 8 2 9 7 6 1 15 5 14 13 0
158800 12 4 10 3 11 8 2 9 7 6 1 15 5 14 13 0
159200 12 4 10 3 11 8 2 9 7 6 1 15 5 14 13 0
159600 12 4 10 3 11 8 2 9 7 6 1 15 5 14 13 0
160000 12 4 10 3 11 8 2 9 7 6 1 15 5 14 13 0
160400 12 4 10 3 11 8 2 9 7 6 1 15 5 14 13 0
160800 12 4 10 3 11 8 2 9 7 6 1 15 5 14 13 0
161200 12 4 10 3 11 8 2 9 7 6 1 15 5 14 13 0
161600 12 4 10 3 11 8 2 9 7 6 1 15 5 14 13 0
162000 12 4 10 3 11 8 2 9 7 6 1 15 5 14 13 0
162400 12 4 10 3 11 8 2 9 7 6 1 15 5 14 13 0
162800 12 4 10 3 11 8 2 9 7 6 1 15 5 14 13 0
163200 12 4 10 3 11 8 2 9 7 6 1 15 5 14 13 0
163600 12 4 10 3 11 8 2 9 7 6 1 15 5 14 13 0
164000 12 4 10 3 11 8 2 9 7 6 1 15 5 14 13 0
164400 12 4 10 3 11 8 2 9 7 6 1 15 5 14 13 0
164800 12 4 10 3 11 8 2 9 7 6 1 15 5 14 13 0
165200 12 4 10 3 11 8 2 9 7 6 1 15 5 14 13 0
165600 12 4 10 3 11 8 2 9 7 6 1 15 5 14 13 0
166000 12 4 10 3 11 8 2 9 7 6 1 15 5 14 13 0
166400 12 4 10 3 11 8 2 9 7 6 1 15 5 14 13 0
166800 12 4 10 3 11 8 2 9 7 6 1 15 5 14 13 0
167200 12 4 10 3 11 8 2 9 7 6 1 15 5 14 13 0
167600 12 4 10 3 11 8 2 9 7 6 1 15 5 14 13 0
168000 12 4 10 3 11 8 2 9 7 6 1 15 5 14 13 0
168400 12 4 10 3 11 8 2 9 7 6 1 15 5 14 13 0
168800 12 4 10 3 11 8 2 9 7 6 1 15 5 14 13 0
169200 12 4 10 3 11 8 2 9 7 6 1 15 5 14 13 0
169600 12 4 10 3 11 8 2 9 7 6 1 15 5 14 13 0
170000 12 4 10 3 11 8 2 9 7 6 1 15 5 14 13 0
170400 12 4 10 3 11 8 2 9 7 6 1 15 5 14 13 0
170800 12 4 10 3 11 8 2 9 7 6 1 15 5 14 13 0
171200 12 4 10 3 11 8 2 9 7 6 1 15 5 14 13 0
171600 12 4 10 3 11 8 2 9 7 6 1 15 5 14 13 0
172000 12 4 10 3 11 8 2 9 7 6 1 15 5 14 13 0
172400 12 4 10 3 11 8 2 9 7 6 1 15 5 14 13 0
172800 12 4 10 3 11 8 2 9 7 6 1 15 5 14 13 0
173200 12 4 10 3 11 8 2 9 7 6 1 15 5 14 13 0
173600 12 4 10 3 11 8 2 9 7 6 1 15 5 14 13 0
174000 12 4 10 3 11 8 2 9 7 6 1 15 5 14 13 0
174400 12 4 10 3 11 8 2 9 7 6 1 15 5 14 13 0
174800 12 4 10 3 11 8 2 9 7 6 1 15 5 14 13 0
175200 12 4 10 3 11 8 2 9 7 6 1 15 5 14 13 0
175600 12 4 10 3 11 8 2 9 7 6 1 15 5 14 13 0
176000 12 4 10 3 11 8 2 9 7 6 1 15 5 14 13 0
176400 12 4 10 3 11 8 2 9 7 6 1 15 5 14 13 0
176800 12 4 10 3 11 8 2 9 7 6 1 15 5 14 13 0
177200 12 4 10 3 11 8 2 9 7 6 1 15 5 14 13 0
177600 12 4 10 3 11 8 2 9 7 6 1 15 5 14 13 0
178000 12 4 10 3 11 8 2 9 7 6 1 15 5 14 13 0
178400 12 4 10 3 11 8 2 9 7 6 1 15 5 14 13 0
178800 12 4 10 3 11 8 2 9 7 6 1 15 5 14 13 0
179200 12 4 10 3 11 8 2 9 7 6 1 15 5 14 13 0
179600 12 4 10 3 11 8 2 9 7 6 1 15 5 14 13 0
180000 12 4 10 3 11 8 2 9 7 6 1 15 5 14 13 0
180400 12 4 10 3 11 8 2 9 7 6 1 15 5 14 13 0
180800 12 4 10 3 11 8 2 9 7 6 1 15 5 14 13 0
181200 12 4 10 3 11 8 2 9 7 6 1 15 5 14 13 0
181600 12 4 10 3 11 8 2 9 7 6 1 15 5 14 13 0
182000 12 4 10 3 11 8 2 9 7 6 1 15 5 14 13 0
182400 12 4 10 3 11 8 2 9 7 6 1 15 5 14 13 0
182800 12 4 10 3 11 8 2 9 7 6 1 15 5 14 13 0
183200 12 4 10 3 11 8 2 9 7 6 1 15 5 14 13 0
183600 12 4 10 3 11 8 2 9 7 6 1 15 5 14 13 0
184000 12 4 10 3 11 8 2 9 7 6 1 15 5 14 13 0
184400 12 4 10 3 11 8 2 9 7 6 1 15 5 14 13 0
184800 12 4 10 3 11 8 2 9 7 6 1 15 5 14 13 0
185200 12 4 10 3 11 8 2 9 7 6 1 15 5 14 13 0
185600 12 4 10 3 11 8 2 9 7 6 1 15 5 14 13 0
186000 12 4 10 3 11 8 2 9 7 6 1 15 5 14 13 0
186400 12 4 10 3 11 8 2 9 7 6 1 15 5 14 13 0
186800 12 4 10 3 11 8 2 9 7 6 1 15 5 14 13 0
187200 12 4 10 3 11 8 2 9 7 6 1 15 5 14 13 0
187600 12 4 10 3 11 8 2 9 7 6 1 15 5 14 13 0
188000 12 4 10 3 11 8 2 9 7 6 1 15 5 14 13 0
188400 12 4 10 3 11 8 2 9 7 6 1 15 5 14 13 0
188800 12 4 10 3 11 8 2 9 7 6 1 15 5 14 13 0
189200 12 4 10 3 11 8 2 9 7 6 1 15 5 14 13 0
189600 12 4 9 3 11 8 2 10 7 6 1 15 5 14 13 0
190000 12 4 9 3 11 8 2 10 7 6 1 15 5 14 13 0
190400 12 4 9 3 11 8 2 10 7 6 1 15 5 14 13 0
190800 12 4 9 3 11 8 2 10 7 6 1 15 5 14 13 0
191200 12 4 9 3 10 8 2 11 7 6 1 15 5 14 13 0
191600 12 4 9 3 10 8 2 11 7 6 1 15 5 14 13 0
192000 12 4 9 3 10 8 2 11 7 5 1 15 6 14 13 0
192400 12 4 9 3 10 8 2 11 7 5 1 15 6 14 13 0
192800 12 4 9 3 10 8 2 11 7 5 1 15 6 14 13 0
193200 12 4 9 3 10 8 2 11 7 5 1 15 6 14 13 0
193600 12 4 9 3 10 8 2 11 7 5 1 15 6 14 13 0
194000 12 4 9 3 10 8 2 11 7 5 1 15 6 14 13 0
194400 12 4 9 3 10 8 2 11 7 5 1 15 6 14 13 0
194800 12 4 9 3 10 8 2 11 7 5 1 15 6 14 13 0
195200 12 4 9 3 10 8 2 11 7 5 1 15 6 14 13 0
195600 12 4 9 3 10 8 2 11 7 5 1 15 6 14 13 0
196000 12 4 9 3 10 8 2 11 7 5 1 15 6 14 13 0
196400 12 4 9 3 10 8 2 11 7 5 1 15 6 14 13 0
196800 12 4 9 3 10 8 2 11 7 5 1 15 6 14 13 0
197200 11 4 9 3 10 8 2 12 7 5 1 15 6 14 13 0
197600 11 4 9 3 10 8 2 12 7 5 1 15 6 14 13 0
198000 11 4 9 3 10 8 2 12 7 5 1 15 6 14 13 0
198400 11 4 9 3 10 8 2 12 7 5 1 15 6 14 13 0
198800 11 4 9 3 10 8 2 12 7 5 1 15 6 14 13 0
199200 11 4 9 3 10 8 2 12 7 5 1 15 6 14 13 0
199600 11 4 9 3 10 8 2 12 7 5 1 15 6 14 13 0
200000 11 4 9 3 10 8 2 12 7 5 1 15 6 14 13 0
