LAMMPS (2 Aug 2023)
Processor partition = 14
# 2d Lennard-Jones melt

units		lj
dimension	2
atom_style	atomic
boundary 	p p p

read_data       lammp.xyz.init
Reading data file ...
  orthogonal box = (0 0 -0.5) to (37.712362 37.712362 0.5)
  2 by 2 by 1 MPI processor grid
  reading atoms ...
  1024 atoms
  read_data CPU = 0.008 seconds

variable temp_val world 1.00e-02 1.4650e-02 1.9741e-02 2.6601e-02 3.5846e-02 4.8303e-02 6.5089e-02 8.7710e-02 1.1819e-01 1.5926e-01 2.1461e-01 2.8920e-01 3.8970e-01 5.2513e-01 7.0762e-01 9.5354e-01

variable Ntot equal 200000

#velocity        all create ${temp_val} 14903 loop geom

# enforce 2D dynamics
fix             enforce2d all enforce2d

pair_style	table linear 301
pair_coeff	1 1 ljgp.tab LJGP 2.5
WARNING: 1 of 301 force values in table LJGP are inconsistent with -dE/dr.
WARNING:  Should only be flagged at inflection points (../pair_table.cpp:466)

neighbor	0.3 bin
neigh_modify	every 20 delay 0 check no

timestep 0.0025
# TBEG=1.0 TEND=1.0 TDAMP=0.5
fix             1 all nvt temp ${temp_val} ${temp_val} $(100.0*dt)
fix             1 all nvt temp 7.0762e-01 ${temp_val} $(100.0*dt)
fix             1 all nvt temp 7.0762e-01 7.0762e-01 $(100.0*dt)
fix             1 all nvt temp 7.0762e-01 7.0762e-01 0.25

# output configuration every 500 steps
#dump 1 all atom 1000 dump.lammps.out
variable rep world 0 1 2 3 4 5 6 7 8 9 10 11 12 13 14 15
dump 1 all atom 40000 dump.temper.${rep}
dump 1 all atom 40000 dump.temper.14

thermo          2000
# run 5000 steps
#run             ${Ntot}

temper ${Ntot} 400 ${temp_val} 1 3847 58382
temper 200000 400 ${temp_val} 1 3847 58382
temper 200000 400 7.0762e-01 1 3847 58382
Generated 0 of 0 mixed pair_coeff terms from geometric mixing rule
Neighbor list info ...
  update: every = 20 steps, delay = 0 steps, check = no
  max neighbors/atom: 2000, page size: 100000
  master list distance cutoff = 2.8
  ghost atom cutoff = 2.8
  binsize = 1.4, bins = 27 27 1
  1 neighbor lists, perpetual/occasional/extra = 1 0 0
  (1) pair table, perpetual
      attributes: half, newton on
      pair build: half/bin/atomonly/newton
      stencil: half/bin/2d
      bin: standard
Per MPI rank memory allocation (min/avg/max) = 2.551 | 2.551 | 2.551 Mbytes
   Step          Temp          E_pair         E_mol          TotEng         Press     
         0   0             -1.5184298      0             -1.5184298     -2.8069358    
      2000   7.5736623e-27 -1.5184298      0             -1.5184298     -2.8069358    
      4000   0.21705996    -1.5268105      0             -1.3099625     -1.4829856    
      6000   0.51355288    -2.3400541      0             -1.8270028      0.37529008   
      8000   0.51384886    -2.2684177      0             -1.7550707      0.12113566   
     10000   0.5365715     -2.1080186      0             -1.5719711      0.025316345  
     12000   0.52658041    -2.0825196      0             -1.5564534      0.0068802096 
     14000   0.53551393    -2.0756203      0             -1.5406294      0.26041994   
     16000   0.51376348    -2.0894247      0             -1.576163       0.040869894  
     18000   0.53401098    -2.0566814      0             -1.5231919     -0.066905292  
     20000   0.54642509    -2.1124033      0             -1.5665118      0.018345793  
     22000   0.53823673    -2.066979       0             -1.5292679      0.04381855   
     24000   0.53751062    -2.0848781      0             -1.5478923      0.32104071   
     26000   0.52968143    -2.0777985      0             -1.5486343      0.048400378  
     28000   0.52347002    -2.060109       0             -1.5371502      0.04410585   
     30000   0.56537318    -2.0902235      0             -1.5254024     -0.073519401  
     32000   0.55461875    -2.0562269      0             -1.5021498      0.16617709   
     34000   0.52681194    -2.0537956      0             -1.5274981      0.072832174  
     36000   0.53881568    -2.0637565      0             -1.525467       0.033293973  
     38000   0.53604122    -2.1094676      0             -1.5739499      0.029347584  
     40000   0.50412985    -2.0927593      0             -1.5891217      0.048013451  
     42000   0.52369302    -2.0911247      0             -1.5679431      0.16466621   
     44000   0.51367296    -2.1231906      0             -1.6100193      0.19180324   
     46000   0.53125416    -2.1093867      0             -1.5786513      0.082950983  
     48000   0.52783485    -2.0919973      0             -1.5646779     -0.0051862003 
     50000   0.53646       -2.078591       0             -1.5426549      0.11380851   
     52000   0.50726184    -2.0637749      0             -1.5570084     -0.01074741   
     54000   0.49538869    -2.0449055      0             -1.5500006     -0.018947976  
     56000   0.52916647    -2.1142575      0             -1.5856078      0.062945952  
     58000   0.5443274     -2.0864573      0             -1.5426615      0.12534343   
     60000   0.51036473    -2.121981       0             -1.6121146      0.11085903   
     62000   0.50536888    -2.0983446      0             -1.5934693      0.041386986  
     64000   0.50954579    -2.0616179      0             -1.5525697      0.066949654  
     66000   0.51755615    -2.0813891      0             -1.5643384      0.002685128  
     68000   0.52153375    -2.0760549      0             -1.5550305     -0.037006901  
     70000   0.49263762    -2.0790548      0             -1.5868982     -0.065533288  
     72000   0.51421168    -2.044711       0             -1.5310015      0.079713281  
     74000   0.50859049    -2.07902        0             -1.5709262      0.055380592  
     76000   0.50637876    -2.0684521      0             -1.5625679     -0.0082516689 
     78000   0.53940362    -2.0620333      0             -1.5231565      0.087806201  
     80000   0.50591413    -2.101459       0             -1.5960389     -0.023930109  
     82000   0.49571613    -2.0297873      0             -1.5345553      0.18217253   
     84000   0.53527024    -2.0931156      0             -1.5583681      0.0047227875 
     86000   0.49682082    -2.0866467      0             -1.590311       0.050826295  
     88000   0.51450049    -2.0819617      0             -1.5679636      0.061630559  
     90000   0.53932506    -2.0428795      0             -1.5040811      0.20084545   
     92000   0.51436396    -2.0368342      0             -1.5229725     -0.022252832  
     94000   0.50270336    -2.1314868      0             -1.6292743      0.15724323   
     96000   0.52152579    -2.0810757      0             -1.5600592     -0.060933258  
     98000   0.52763319    -2.0729917      0             -1.5458737      0.028650873  
    100000   0.51769422    -2.0919878      0             -1.5747991      0.1630016    
    102000   0.56720923    -2.1082598      0             -1.5416045      0.081653868  
    104000   0.50893787    -2.0625217      0             -1.5540809     -0.24360158   
    106000   0.51973454    -2.0893671      0             -1.5701401     -0.0062120268 
    108000   0.52221046    -2.0452927      0             -1.5235922      0.16255134   
    110000   0.50079102    -2.0520501      0             -1.5517481      0.066018656  
    112000   0.50343054    -2.0692111      0             -1.5662722     -0.00030217079
    114000   0.51636203    -2.0475826      0             -1.5317248     -0.012864306  
    116000   0.52421153    -2.0709334      0             -1.5472337      0.036128323  
    118000   0.5166187     -2.1308612      0             -1.614747       0.015680945  
    120000   0.52675194    -2.0903868      0             -1.5641492     -0.022560638  
    122000   0.52644235    -2.0952348      0             -1.5693066      0.12512572   
    124000   0.53563515    -2.09961        0             -1.5644979     -0.019348247  
    126000   0.52574323    -2.0603154      0             -1.5350856     -0.045997691  
    128000   0.4977798     -2.0183002      0             -1.5210065      0.015402578  
    130000   0.48183821    -2.12879        0             -1.6474223     -0.15277655   
    132000   0.52290134    -2.0727163      0             -1.5503256      0.069421487  
    134000   0.54184298    -2.109475       0             -1.5681612      0.26523776   
    136000   0.53975695    -2.1176432      0             -1.5784134      0.079521951  
    138000   0.52723285    -2.0718192      0             -1.5451013     -0.057074986  
    140000   0.55853347    -2.0836169      0             -1.5256289      0.061087676  
    142000   0.53485084    -2.1249683      0             -1.5906397      0.0027268144 
    144000   0.50352331    -2.0996218      0             -1.5965902      0.056816974  
    146000   0.50443792    -2.0677585      0             -1.5638132      0.2242424    
    148000   0.52341664    -2.1222119      0             -1.5993064      0.033496202  
    150000   0.52385493    -2.0486638      0             -1.5253204      0.073507459  
    152000   0.5171772     -2.045555       0             -1.5288829     -0.015285368  
    154000   0.54825352    -2.0311572      0             -1.4834391     -0.077691523  
    156000   0.52818868    -2.1003262      0             -1.5726533      0.046051026  
    158000   0.52516198    -2.1090682      0             -1.584419      -0.021422225  
    160000   0.53202619    -2.0800617      0             -1.5485551      0.087292819  
    162000   0.53628364    -2.1023969      0             -1.566637      -0.11201891   
    164000   0.52811786    -2.0937696      0             -1.5661675     -0.086398925  
    166000   0.5332817     -2.0985466      0             -1.5657857      0.026882004  
    168000   0.51254923    -2.0666436      0             -1.5545949      0.065729899  
    170000   0.54334456    -2.0513916      0             -1.5085777      0.041593398  
    172000   0.53920012    -2.0288298      0             -1.4901562      0.087525361  
    174000   0.54994404    -2.0841117      0             -1.5347047      0.21773951   
    176000   0.51390825    -2.0810904      0             -1.5676841     -0.088937514  
    178000   0.47722171    -2.0850654      0             -1.6083098     -0.046298565  
    180000   0.54562741    -2.1166793      0             -1.5715847     -0.052201323  
    182000   0.54901881    -2.0693397      0             -1.5208571      0.042449803  
    184000   0.53880744    -2.0898377      0             -1.5515565      0.13783732   
    186000   0.52484071    -2.1001617      0             -1.5758335     -0.023028341  
    188000   0.52334539    -2.0302449      0             -1.5074106      0.045612568  
    190000   0.48236902    -2.0593681      0             -1.5774701     -0.04433191   
    192000   0.52457086    -2.0435305      0             -1.519472       0.017185149  
    194000   0.52386359    -2.0885096      0             -1.5651576      0.17912127   
    196000   0.55221675    -2.1082265      0             -1.556549       0.016570991  
    198000   0.51478348    -2.1164876      0             -1.6022068      0.14662567   
    200000   0.51818403    -2.1501176      0             -1.6324396     -0.12579827   
Loop time of 13.4517 on 4 procs for 200000 steps with 1024 atoms

Performance: 3211498.028 tau/day, 14868.046 timesteps/s, 15.225 Matom-step/s
100.0% CPU use with 4 MPI tasks x no OpenMP threads

MPI task timing breakdown:
Section |  min time  |  avg time  |  max time  |%varavg| %total
---------------------------------------------------------------
Pair    | 3.8498     | 4.1945     | 4.41       |  10.8 | 31.18
Neigh   | 0.51025    | 0.55814    | 0.58519    |   3.9 |  4.15
Comm    | 4.0994     | 4.3166     | 4.7065     |  11.6 | 32.09
Output  | 0.0024519  | 0.0026506  | 0.0028381  |   0.3 |  0.02
Modify  | 1.12       | 1.145      | 1.1753     |   1.9 |  8.51
Other   |            | 3.235      |            |       | 24.05

Nlocal:            256 ave         296 max         214 min
Histogram: 1 0 0 0 1 1 0 0 0 1
Nghost:         177.75 ave         197 max         158 min
Histogram: 1 0 1 0 0 0 0 1 0 1
Neighs:        2356.75 ave        2898 max        1888 min
Histogram: 1 0 0 1 1 0 0 0 0 1

Total # of neighbors = 9427
Ave neighs/atom = 9.2060547
Neighbor list builds = 10000
Dangerous builds not checked
Total wall time: 0:00:13
