LAMMPS (2 Aug 2023)
Processor partition = 9
# 2d Lennard-Jones melt

units		lj
dimension	2
atom_style	atomic
boundary 	p p p

read_data       lammp.xyz.init
Reading data file ...
  orthogonal box = (0 0 -0.5) to (37.712362 37.712362 0.5)
  2 by 2 by 1 MPI processor grid
  reading atoms ...
  1024 atoms
  read_data CPU = 0.008 seconds

variable temp_val world 1.00e-02 1.4650e-02 1.9741e-02 2.6601e-02 3.5846e-02 4.8303e-02 6.5089e-02 8.7710e-02 1.1819e-01 1.5926e-01 2.1461e-01 2.8920e-01 3.8970e-01 5.2513e-01 7.0762e-01 9.5354e-01

variable Ntot equal 200000

#velocity        all create ${temp_val} 14903 loop geom

# enforce 2D dynamics
fix             enforce2d all enforce2d

pair_style	table linear 301
pair_coeff	1 1 ljgp.tab LJGP 2.5
WARNING: 1 of 301 force values in table LJGP are inconsistent with -dE/dr.
WARNING:  Should only be flagged at inflection points (../pair_table.cpp:466)

neighbor	0.3 bin
neigh_modify	every 20 delay 0 check no

timestep 0.0025
# TBEG=1.0 TEND=1.0 TDAMP=0.5
fix             1 all nvt temp ${temp_val} ${temp_val} $(100.0*dt)
fix             1 all nvt temp 1.5926e-01 ${temp_val} $(100.0*dt)
fix             1 all nvt temp 1.5926e-01 1.5926e-01 $(100.0*dt)
fix             1 all nvt temp 1.5926e-01 1.5926e-01 0.25

# output configuration every 500 steps
#dump 1 all atom 1000 dump.lammps.out
variable rep world 0 1 2 3 4 5 6 7 8 9 10 11 12 13 14 15
dump 1 all atom 40000 dump.temper.${rep}
dump 1 all atom 40000 dump.temper.9

thermo          2000
# run 5000 steps
#run             ${Ntot}

temper ${Ntot} 400 ${temp_val} 1 3847 58382
temper 200000 400 ${temp_val} 1 3847 58382
temper 200000 400 1.5926e-01 1 3847 58382
Generated 0 of 0 mixed pair_coeff terms from geometric mixing rule
Neighbor list info ...
  update: every = 20 steps, delay = 0 steps, check = no
  max neighbors/atom: 2000, page size: 100000
  master list distance cutoff = 2.8
  ghost atom cutoff = 2.8
  binsize = 1.4, bins = 27 27 1
  1 neighbor lists, perpetual/occasional/extra = 1 0 0
  (1) pair table, perpetual
      attributes: half, newton on
      pair build: half/bin/atomonly/newton
      stencil: half/bin/2d
      bin: standard
Per MPI rank memory allocation (min/avg/max) = 2.551 | 2.551 | 2.551 Mbytes
   Step          Temp          E_pair         E_mol          TotEng         Press     
         0   0             -1.5184298      0             -1.5184298     -2.8069358    
      2000   1.8377659e-25 -1.5184298      0             -1.5184298     -2.8069358    
      4000   0.51963927    -1.5588009      0             -1.0396691     -0.099488053  
      6000   0.16285398    -2.7560682      0             -2.5933733     -0.33213399   
      8000   0.11030417    -2.9547144      0             -2.8445179     -0.2243453    
     10000   0.062720661   -3.1081601      0             -3.0455007     -0.11698216   
     12000   0.033332902   -3.1669511      0             -3.1336508      0.089416912  
     14000   0.026557184   -3.1968304      0             -3.1702992     -0.011997046  
     16000   0.026967016   -3.2007107      0             -3.17377       -0.17986886   
     18000   0.010726947   -3.2212814      0             -3.210565      -0.03608526   
     20000   0.0099393524  -3.2339767      0             -3.224047      -0.039673017  
     22000   0.010062731   -3.2362075      0             -3.2261546     -0.080878265  
     24000   0.015422647   -3.2367589      0             -3.2213513      0.0011405825 
     26000   0.015605131   -3.2400084      0             -3.2244185     -0.04033345   
     28000   0.026689937   -3.232587       0             -3.2059231      0.0889093    
     30000   0.035150574   -3.2232861      0             -3.1881699     -0.17271319   
     32000   0.036105763   -3.2285846      0             -3.1925141     -0.013049553  
     34000   0.035145237   -3.232091       0             -3.1969801     -0.019813476  
     36000   0.034693862   -3.2343706      0             -3.1997107     -0.11301837   
     38000   0.035898357   -3.2395119      0             -3.2036486     -0.10958492   
     40000   0.037075298   -3.2387315      0             -3.2016925      0.0064713671 
     42000   0.036363302   -3.23757        0             -3.2012422     -0.020864629  
     44000   0.036185166   -3.2358411      0             -3.1996912     -0.070620394  
     46000   0.036395765   -3.2379033      0             -3.2015431     -0.005814707  
     48000   0.035815643   -3.2391503      0             -3.2033696     -0.038502105  
     50000   0.037617079   -3.2379327      0             -3.2003524     -0.13079589   
     52000   0.033819152   -3.2373135      0             -3.2035274     -0.04319183   
     54000   0.034870672   -3.2381797      0             -3.2033431     -0.038124926  
     56000   0.036474045   -3.2357397      0             -3.1993013     -0.12074338   
     58000   0.03717013    -3.2389282      0             -3.2017943     -0.079060551  
     60000   0.035673309   -3.2384407      0             -3.2028023     -0.0040894183 
     62000   0.034965795   -3.2385032      0             -3.2035716     -0.064047194  
     64000   0.035393414   -3.2392078      0             -3.203849       0.011281559  
     66000   0.03658497    -3.240092       0             -3.2035428     -0.052176049  
     68000   0.036223121   -3.2386366      0             -3.2024489     -0.0084559996 
     70000   0.035928597   -3.2402625      0             -3.2043689     -0.084502926  
     72000   0.037229876   -3.2379629      0             -3.2007693     -0.040477532  
     74000   0.046505157   -3.2277607      0             -3.1813009     -0.098983171  
     76000   0.063908484   -3.2093347      0             -3.1454886     -0.030737255  
     78000   0.061731794   -3.2097594      0             -3.1480878      0.0024854528 
     80000   0.066831326   -3.2090894      0             -3.1423234     -0.020612054  
     82000   0.061732811   -3.2065007      0             -3.1448282      0.077749599  
     84000   0.065576547   -3.2106875      0             -3.145175      -0.055109455  
     86000   0.066704723   -3.2092214      0             -3.1425819     -0.064719935  
     88000   0.062137174   -3.2035638      0             -3.1414873     -0.072453298  
     90000   0.067493789   -3.2092557      0             -3.1418278     -0.061087241  
     92000   0.061602341   -3.2059172      0             -3.1443751     -0.089003431  
     94000   0.071224307   -3.2124006      0             -3.1412459     -0.0052515461 
     96000   0.064519052   -3.2099331      0             -3.145477       0.034881446  
     98000   0.067008702   -3.2174961      0             -3.1505528      0.056710177  
    100000   0.066960975   -3.2141852      0             -3.1472896      0.048584547  
    102000   0.063976667   -3.2137935      0             -3.1498793      0.0023140983 
    104000   0.065569729   -3.2166288      0             -3.1511231     -0.030278301  
    106000   0.062249113   -3.2136725      0             -3.1514842     -0.012819761  
    108000   0.063155208   -3.214207       0             -3.1511135     -0.0029119398 
    110000   0.061444328   -3.2127462      0             -3.1513619      0.039945163  
    112000   0.06346007    -3.20974        0             -3.1463419      0.042500955  
    114000   0.061792464   -3.216428       0             -3.1546959      0.03044352   
    116000   0.064197819   -3.2146277      0             -3.1504926     -0.026501676  
    118000   0.061916851   -3.2138743      0             -3.1520179      0.0060506162 
    120000   0.06420527    -3.2093831      0             -3.1452405      0.090231125  
    122000   0.070012786   -3.2130609      0             -3.1431165      0.00060532742
    124000   0.065703224   -3.211924       0             -3.1462849      0.010396864  
    126000   0.065987237   -3.2135641      0             -3.1476413      0.070869411  
    128000   0.067538373   -3.2140607      0             -3.1465883      0.035871718  
    130000   0.068240578   -3.214635       0             -3.1464611      0.045151901  
    132000   0.066266976   -3.2161914      0             -3.1499891      0.092046245  
    134000   0.064561936   -3.2117646      0             -3.1472657      0.033591807  
    136000   0.067045699   -3.2147027      0             -3.1477225      0.024903703  
    138000   0.063769012   -3.216508       0             -3.1528012      0.011237761  
    140000   0.064179237   -3.2184746      0             -3.1543581      0.035632152  
    142000   0.066367089   -3.2155027      0             -3.1492004     -0.012611575  
    144000   0.063427427   -3.2159182      0             -3.1525527     -0.016463028  
    146000   0.062798982   -3.2173103      0             -3.1545727     -0.033994394  
    148000   0.067559779   -3.2115646      0             -3.1440708     -0.026013253  
    150000   0.066151768   -3.2150775      0             -3.1489904     -0.024102134  
    152000   0.063393564   -3.2158423      0             -3.1525106      0.051953793  
    154000   0.063800632   -3.2128166      0             -3.1490783     -0.0067928875 
    156000   0.062778768   -3.2103271      0             -3.1476096      0.031309984  
    158000   0.064709615   -3.21244        0             -3.1477936      0.019346813  
    160000   0.061251601   -3.2129303      0             -3.1517385      0.042946599  
    162000   0.062595343   -3.2097279      0             -3.1471937      0.011543637  
    164000   0.062500049   -3.2135512      0             -3.1511122      0.0086589644 
    166000   0.068125668   -3.2159201      0             -3.147861       0.038276663  
    168000   0.067843645   -3.214727       0             -3.1469496      0.016763065  
    170000   0.063489431   -3.21853        0             -3.1551026      0.019354425  
    172000   0.063891056   -3.2163814      0             -3.1525527      0.0032278519 
    174000   0.069560596   -3.2151379      0             -3.1456453      0.0021083111 
    176000   0.069875504   -3.2174581      0             -3.1476508      0.022729787  
    178000   0.064667159   -3.213214       0             -3.14861        0.047199488  
    180000   0.066381345   -3.2169569      0             -3.1506404      0.030465099  
    182000   0.068951617   -3.2189038      0             -3.1500195     -0.013556641  
    184000   0.062872544   -3.2185664      0             -3.1557552      0.025254379  
    186000   0.063007875   -3.2219117      0             -3.1589654      0.005367037  
    188000   0.064858459   -3.2181092      0             -3.153314       0.076457052  
    190000   0.063769617   -3.2187702      0             -3.1550629     -0.0018184103 
    192000   0.066566039   -3.2265518      0             -3.1600508      0.083342245  
    194000   0.048840897   -3.2426189      0             -3.1938257      0.06069948   
    196000   0.049186366   -3.2400799      0             -3.1909416      0.026140625  
    198000   0.04835147    -3.239043       0             -3.1907388      0.096050988  
    200000   0.048651928   -3.2416347      0             -3.1930302      0.076600714  
Loop time of 13.4516 on 4 procs for 200000 steps with 1024 atoms

Performance: 3211513.712 tau/day, 14868.119 timesteps/s, 15.225 Matom-step/s
100.0% CPU use with 4 MPI tasks x no OpenMP threads

MPI task timing breakdown:
Section |  min time  |  avg time  |  max time  |%varavg| %total
---------------------------------------------------------------
Pair    | 3.5083     | 4.81       | 6.261      |  45.3 | 35.76
Neigh   | 0.30212    | 0.40791    | 0.53316    |  12.9 |  3.03
Comm    | 3.4834     | 5.1074     | 6.5461     |  49.2 | 37.97
Output  | 0.0026291  | 0.0028287  | 0.0030128  |   0.3 |  0.02
Modify  | 1.1134     | 1.178      | 1.2262     |   4.3 |  8.76
Other   |            | 1.945      |            |       | 14.46

Nlocal:            256 ave         325 max         187 min
Histogram: 1 0 0 0 1 1 0 0 0 1
Nghost:            142 ave         154 max         119 min
Histogram: 1 0 0 0 0 0 1 0 0 2
Neighs:           3266 ave        4283 max        2381 min
Histogram: 1 0 0 1 1 0 0 0 0 1

Total # of neighbors = 13064
Ave neighs/atom = 12.757812
Neighbor list builds = 10000
Dangerous builds not checked
Total wall time: 0:00:13
