LAMMPS (2 Aug 2023)
Processor partition = 7
# 2d Lennard-Jones melt

units		lj
dimension	2
atom_style	atomic
boundary 	p p p

read_data       lammp.xyz.init
Reading data file ...
  orthogonal box = (0 0 -0.5) to (37.712362 37.712362 0.5)
  2 by 2 by 1 MPI processor grid
  reading atoms ...
  1024 atoms
  read_data CPU = 0.006 seconds

variable temp_val world 1.00e-02 1.4650e-02 1.9741e-02 2.6601e-02 3.5846e-02 4.8303e-02 6.5089e-02 8.7710e-02 1.1819e-01 1.5926e-01 2.1461e-01 2.8920e-01 3.8970e-01 5.2513e-01 7.0762e-01 9.5354e-01

variable Ntot equal 200000

#velocity        all create ${temp_val} 14903 loop geom

# enforce 2D dynamics
fix             enforce2d all enforce2d

pair_style	table linear 301
pair_coeff	1 1 ljgp.tab LJGP 2.5
WARNING: 1 of 301 force values in table LJGP are inconsistent with -dE/dr.
WARNING:  Should only be flagged at inflection points (../pair_table.cpp:466)

neighbor	0.3 bin
neigh_modify	every 20 delay 0 check no

timestep 0.0025
# TBEG=1.0 TEND=1.0 TDAMP=0.5
fix             1 all nvt temp ${temp_val} ${temp_val} $(100.0*dt)
fix             1 all nvt temp 8.7710e-02 ${temp_val} $(100.0*dt)
fix             1 all nvt temp 8.7710e-02 8.7710e-02 $(100.0*dt)
fix             1 all nvt temp 8.7710e-02 8.7710e-02 0.25

# output configuration every 500 steps
#dump 1 all atom 1000 dump.lammps.out
variable rep world 0 1 2 3 4 5 6 7 8 9 10 11 12 13 14 15
dump 1 all atom 40000 dump.temper.${rep}
dump 1 all atom 40000 dump.temper.7

thermo          2000
# run 5000 steps
#run             ${Ntot}

temper ${Ntot} 400 ${temp_val} 1 3847 58382
temper 200000 400 ${temp_val} 1 3847 58382
temper 200000 400 8.7710e-02 1 3847 58382
Generated 0 of 0 mixed pair_coeff terms from geometric mixing rule
Neighbor list info ...
  update: every = 20 steps, delay = 0 steps, check = no
  max neighbors/atom: 2000, page size: 100000
  master list distance cutoff = 2.8
  ghost atom cutoff = 2.8
  binsize = 1.4, bins = 27 27 1
  1 neighbor lists, perpetual/occasional/extra = 1 0 0
  (1) pair table, perpetual
      attributes: half, newton on
      pair build: half/bin/atomonly/newton
      stencil: half/bin/2d
      bin: standard
Per MPI rank memory allocation (min/avg/max) = 2.551 | 2.551 | 2.551 Mbytes
   Step          Temp          E_pair         E_mol          TotEng         Press     
         0   0             -1.5184298      0             -1.5184298     -2.8069358    
      2000   1.8377481e-25 -1.5184298      0             -1.5184298     -2.8069358    
      4000   0.28989065    -1.605752       0             -1.3161445     -0.92754416   
      6000   0.087394868   -2.7645469      0             -2.6772374     -0.17250068   
      8000   0.061555134   -2.9671093      0             -2.9056143      0.068890235  
     10000   0.03349914    -3.0430517      0             -3.0095852     -0.039984061  
     12000   0.019338164   -3.0773375      0             -3.0580182      0.058495981  
     14000   0.013983276   -3.1061217      0             -3.0921521     -0.042413927  
     16000   0.013870462   -3.1242214      0             -3.1103645     -0.0071553266 
     18000   0.014354605   -3.1318616      0             -3.117521       0.061183342  
     20000   0.024861011   -3.121882       0             -3.0970453     -0.059646337  
     22000   0.034030941   -3.1119334      0             -3.0779357     -0.017713492  
     24000   0.12561255    -3.045874       0             -2.9203842     -0.032941116  
     26000   0.16794487    -3.0167575      0             -2.8489767     -0.035610351  
     28000   0.15384495    -3.0095488      0             -2.8558541     -0.066999315  
     30000   0.15960865    -3.0568395      0             -2.8973867      0.0017970349 
     32000   0.15910214    -3.0685742      0             -2.9096274      0.12433191   
     34000   0.15320705    -3.0607121      0             -2.9076547     -0.0096371617 
     36000   0.15523226    -3.0765276      0             -2.9214469      0.063800214  
     38000   0.16068398    -3.0790032      0             -2.9184761      0.0020731561 
     40000   0.15936254    -3.0794922      0             -2.9202853     -0.15093666   
     42000   0.16065613    -3.0720486      0             -2.9115494      0.027550046  
     44000   0.15561504    -3.0845901      0             -2.929127      -0.064317014  
     46000   0.16131242    -3.0815596      0             -2.9204047     -0.025512745  
     48000   0.11579763    -3.1393128      0             -3.0236282     -0.025096053  
     50000   0.12435191    -3.1406084      0             -3.0163779      0.042011461  
     52000   0.12105408    -3.133819       0             -3.0128832      0.053894182  
     54000   0.12291772    -3.1417101      0             -3.0189124     -0.06501523   
     56000   0.11800415    -3.1336257      0             -3.0157368     -0.080736467  
     58000   0.11808292    -3.1364043      0             -3.0184367     -0.093318153  
     60000   0.12169503    -3.1369141      0             -3.0153379     -0.080175638  
     62000   0.1159814     -3.1324188      0             -3.0165507     -0.10922729   
     64000   0.12171098    -3.1363832      0             -3.014791      -0.051083119  
     66000   0.12099113    -3.140729       0             -3.019856      -0.0096549148 
     68000   0.12130779    -3.1423191      0             -3.0211297     -0.18340234   
     70000   0.11738521    -3.1429417      0             -3.0256711     -0.045816958  
     72000   0.12263114    -3.1378547      0             -3.0153434      0.014702942  
     74000   0.15521964    -3.0896895      0             -2.9346214     -0.053824943  
     76000   0.16024553    -3.0867759      0             -2.9266869     -0.0089956701 
     78000   0.17038859    -3.0949896      0             -2.9247674     -0.023832292  
     80000   0.16316556    -3.0877876      0             -2.9247814      0.049297603  
     82000   0.15988948    -3.0896547      0             -2.9299214     -0.057252617  
     84000   0.16879055    -3.0936933      0             -2.9250676      0.074166951  
     86000   0.15930481    -3.0901617      0             -2.9310124     -0.091537949  
     88000   0.15908318    -3.1064111      0             -2.9474833      0.021993745  
     90000   0.15729849    -3.0951376      0             -2.9379928      0.019125929  
     92000   0.15697418    -3.0874343      0             -2.9306134     -0.078686107  
     94000   0.14863799    -3.1035472      0             -2.9550543      0.028741512  
     96000   0.15717583    -3.0911761      0             -2.9341538     -0.096206075  
     98000   0.16629797    -3.0928685      0             -2.9267329     -0.055470762  
    100000   0.16646474    -3.0959626      0             -2.9296604      0.003282913  
    102000   0.16210826    -3.0965553      0             -2.9346054     -0.087120605  
    104000   0.16991479    -3.0900249      0             -2.920276      -0.12292108   
    106000   0.15611582    -3.0914701      0             -2.9355067      0.08063023   
    108000   0.15323411    -3.0960449      0             -2.9429604     -0.076813945  
    110000   0.15552898    -3.0912344      0             -2.9358573      0.007952217  
    112000   0.1651096     -3.1010393      0             -2.9360909     -0.10275581   
    114000   0.16188212    -3.0921157      0             -2.9303916      0.067652018  
    116000   0.15725573    -3.0990068      0             -2.9419046      0.031308783  
    118000   0.15377798    -3.0857831      0             -2.9321553     -0.15556467   
    120000   0.16347258    -3.0922759      0             -2.9289629      0.052625125  
    122000   0.15641603    -3.100294       0             -2.9440307      0.008989469  
    124000   0.15684276    -3.0908278      0             -2.9341382     -0.010683999  
    126000   0.1591087     -3.0926742      0             -2.9337209      0.13131655   
    128000   0.16030055    -3.0875813      0             -2.9274373      0.0034991262 
    130000   0.16033724    -3.0976116      0             -2.937431       0.090140048  
    132000   0.16067403    -3.0919465      0             -2.9314294     -0.07388816   
    134000   0.15088974    -3.1002051      0             -2.9494628     -0.090721853  
    136000   0.16175488    -3.0903051      0             -2.9287082      0.00098609407
    138000   0.15962819    -3.0859921      0             -2.9265198     -0.065213162  
    140000   0.16018715    -3.0867148      0             -2.9266841     -0.076708265  
    142000   0.15800238    -3.1002167      0             -2.9423686     -0.088999415  
    144000   0.15790922    -3.0949022      0             -2.9371472     -0.043974798  
    146000   0.15861375    -3.0963459      0             -2.9378871     -0.0036041217 
    148000   0.15830534    -3.0972713      0             -2.9391206      0.037629132  
    150000   0.15431607    -3.0941782      0             -2.9400129     -0.042771265  
    152000   0.1552589     -3.0995996      0             -2.9444923      0.017495285  
    154000   0.16334053    -3.1030535      0             -2.9398725     -0.0019725628 
    156000   0.15084792    -3.0959007      0             -2.9452001     -0.090483245  
    158000   0.15619563    -3.0909685      0             -2.9349254     -0.084045909  
    160000   0.16900031    -3.0988039      0             -2.9299686     -0.066460803  
    162000   0.15587642    -3.102241       0             -2.9465168     -0.013616899  
    164000   0.16087552    -3.0954281      0             -2.9347097     -0.020838227  
    166000   0.1610537     -3.0898582      0             -2.9289618      0.011722453  
    168000   0.16315652    -3.1036897      0             -2.9406925     -0.04971259   
    170000   0.15771075    -3.0983624      0             -2.9408057      0.031807199  
    172000   0.15509588    -3.0912804      0             -2.936336       0.0069196738 
    174000   0.15470923    -3.0947485      0             -2.9401904     -0.069791739  
    176000   0.16029676    -3.0788731      0             -2.9187329      0.074617853  
    178000   0.16484629    -3.1027789      0             -2.9380936     -0.044907073  
    180000   0.15705761    -3.0934088      0             -2.9365046     -0.11218329   
    182000   0.15664382    -3.1019247      0             -2.9454339      0.11786167   
    184000   0.16848979    -3.0905733      0             -2.9222481     -0.1191482    
    186000   0.15236367    -3.1016243      0             -2.9494094      0.0097003886 
    188000   0.15511702    -3.0955698      0             -2.9406043     -0.03486418   
    190000   0.20864218    -3.0229337      0             -2.8144953     -0.020783747  
    192000   0.29226004    -2.9018373      0             -2.6098627      0.0019357208 
    194000   0.29813474    -2.9041207      0             -2.6062771     -0.02613041   
    196000   0.30645169    -2.9383759      0             -2.6322235     -0.03307383   
    198000   0.39709139    -2.7510882      0             -2.3543846     -0.042336158  
    200000   0.39903554    -2.6680655      0             -2.2694197     -0.13975531   
Loop time of 13.4519 on 4 procs for 200000 steps with 1024 atoms

Performance: 3211446.674 tau/day, 14867.809 timesteps/s, 15.225 Matom-step/s
100.0% CPU use with 4 MPI tasks x no OpenMP threads

MPI task timing breakdown:
Section |  min time  |  avg time  |  max time  |%varavg| %total
---------------------------------------------------------------
Pair    | 4.4461     | 4.7233     | 5.1299     |  12.1 | 35.11
Neigh   | 0.44521    | 0.46755    | 0.50099    |   3.0 |  3.48
Comm    | 3.1673     | 3.549      | 3.7496     |  12.1 | 26.38
Output  | 0.0025299  | 0.0026903  | 0.0028647  |   0.3 |  0.02
Modify  | 1.1302     | 1.2209     | 1.3205     |   7.1 |  9.08
Other   |            | 3.488      |            |       | 25.93

Nlocal:            256 ave         288 max         227 min
Histogram: 1 0 1 0 0 0 1 0 0 1
Nghost:          114.5 ave         121 max         111 min
Histogram: 1 1 0 1 0 0 0 0 0 1
Neighs:           2765 ave        3122 max        2386 min
Histogram: 1 0 0 1 0 0 0 1 0 1

Total # of neighbors = 11060
Ave neighs/atom = 10.800781
Neighbor list builds = 10000
Dangerous builds not checked
Total wall time: 0:00:13
