LAMMPS (2 Aug 2023)
Processor partition = 12
# 2d Lennard-Jones melt

units		lj
dimension	2
atom_style	atomic
boundary 	p p p

read_data       lammp.xyz.init
Reading data file ...
  orthogonal box = (0 0 -0.5) to (37.712362 37.712362 0.5)
  2 by 2 by 1 MPI processor grid
  reading atoms ...
  1024 atoms
  read_data CPU = 0.008 seconds

variable temp_val world 1.00e-02 1.4650e-02 1.9741e-02 2.6601e-02 3.5846e-02 4.8303e-02 6.5089e-02 8.7710e-02 1.1819e-01 1.5926e-01 2.1461e-01 2.8920e-01 3.8970e-01 5.2513e-01 7.0762e-01 9.5354e-01

variable Ntot equal 200000

#velocity        all create ${temp_val} 14903 loop geom

# enforce 2D dynamics
fix             enforce2d all enforce2d

pair_style	table linear 301
pair_coeff	1 1 ljgp.tab LJGP 2.5
WARNING: 1 of 301 force values in table LJGP are inconsistent with -dE/dr.
WARNING:  Should only be flagged at inflection points (../pair_table.cpp:466)

neighbor	0.3 bin
neigh_modify	every 20 delay 0 check no

timestep 0.0025
# TBEG=1.0 TEND=1.0 TDAMP=0.5
fix             1 all nvt temp ${temp_val} ${temp_val} $(100.0*dt)
fix             1 all nvt temp 3.8970e-01 ${temp_val} $(100.0*dt)
fix             1 all nvt temp 3.8970e-01 3.8970e-01 $(100.0*dt)
fix             1 all nvt temp 3.8970e-01 3.8970e-01 0.25

# output configuration every 500 steps
#dump 1 all atom 1000 dump.lammps.out
variable rep world 0 1 2 3 4 5 6 7 8 9 10 11 12 13 14 15
dump 1 all atom 40000 dump.temper.${rep}
dump 1 all atom 40000 dump.temper.12

thermo          2000
# run 5000 steps
#run             ${Ntot}

temper ${Ntot} 400 ${temp_val} 1 3847 58382
temper 200000 400 ${temp_val} 1 3847 58382
temper 200000 400 3.8970e-01 1 3847 58382
Generated 0 of 0 mixed pair_coeff terms from geometric mixing rule
Neighbor list info ...
  update: every = 20 steps, delay = 0 steps, check = no
  max neighbors/atom: 2000, page size: 100000
  master list distance cutoff = 2.8
  ghost atom cutoff = 2.8
  binsize = 1.4, bins = 27 27 1
  1 neighbor lists, perpetual/occasional/extra = 1 0 0
  (1) pair table, perpetual
      attributes: half, newton on
      pair build: half/bin/atomonly/newton
      stencil: half/bin/2d
      bin: standard
Per MPI rank memory allocation (min/avg/max) = 2.551 | 2.551 | 2.551 Mbytes
   Step          Temp          E_pair         E_mol          TotEng         Press     
         0   0             -1.5184298      0             -1.5184298     -2.8069358    
      2000   7.5735115e-27 -1.5184298      0             -1.5184298     -2.8069358    
      4000   0.19525468    -1.5519049      0             -1.3568409     -1.7553839    
      6000   0.28955691    -2.5563872      0             -2.2671131     -0.054123472  
      8000   0.279358      -2.7336666      0             -2.4545814      0.043781859  
     10000   0.28931049    -2.8393148      0             -2.5502868     -0.15233684   
     12000   0.10878072    -3.1467694      0             -3.0380949     -0.11661158   
     14000   0.085384363   -3.1713188      0             -3.0860178     -0.020556673  
     16000   0.083968743   -3.1790125      0             -3.0951258     -0.078964076  
     18000   0.035590202   -3.2313762      0             -3.1958208     -0.0029924505 
     20000   0.019910204   -3.2496535      0             -3.2297628     -0.05805079   
     22000   0.015355067   -3.2545291      0             -3.239189      -0.051738404  
     24000   0.010229784   -3.2590234      0             -3.2488036     -0.017680173  
     26000   0.010227882   -3.2597047      0             -3.2494868     -0.048092623  
     28000   0.018931224   -3.2490683      0             -3.2301556     -0.11159497   
     30000   0.026314135   -3.2433388      0             -3.2170504     -0.10091038   
     32000   0.026159491   -3.2443064      0             -3.2181725      0.016934157  
     34000   0.027044442   -3.2434015      0             -3.2163834      0.068730255  
     36000   0.026873535   -3.2422099      0             -3.2153626     -0.057822201  
     38000   0.027032752   -3.2428739      0             -3.2158675     -0.085024428  
     40000   0.027071118   -3.2425987      0             -3.215554       0.014471342  
     42000   0.027898737   -3.2441494      0             -3.2162779     -0.04970377   
     44000   0.026435114   -3.2435334      0             -3.2171241     -0.14452282   
     46000   0.025617901   -3.244446       0             -3.2188531      0.019697882  
     48000   0.026595385   -3.2422755      0             -3.215706      -0.018205523  
     50000   0.026045132   -3.2411699      0             -3.2151502     -0.076084332  
     52000   0.026534346   -3.2423561      0             -3.2158477     -0.029538808  
     54000   0.025640063   -3.2441686      0             -3.2185536     -0.017442618  
     56000   0.025386187   -3.242274       0             -3.2169126     -0.071985284  
     58000   0.025648849   -3.2430915      0             -3.2174677     -0.058132388  
     60000   0.027155491   -3.2435269      0             -3.216398      -0.058298333  
     62000   0.026306858   -3.2441102      0             -3.217829       0.004253356  
     64000   0.026731027   -3.2421107      0             -3.2154058     -0.085663782  
     66000   0.026052164   -3.2430797      0             -3.217053      -0.063762433  
     68000   0.026247963   -3.2416144      0             -3.2153921     -0.024184923  
     70000   0.026675567   -3.2419326      0             -3.2152831      0.0019836379 
     72000   0.026165779   -3.241287       0             -3.2151468     -0.10687273   
     74000   0.0266651     -3.2437046      0             -3.2170655     -0.011598748  
     76000   0.050528023   -3.2212788      0             -3.1708001      0.059008432  
     78000   0.048668493   -3.220963       0             -3.172342      -0.077288367  
     80000   0.050761056   -3.2231812      0             -3.1724697     -0.085158988  
     82000   0.048803881   -3.2183899      0             -3.1696337      0.044546241  
     84000   0.047845555   -3.2179742      0             -3.1701754     -0.034307607  
     86000   0.047795076   -3.2201428      0             -3.1723944     -0.0047872139 
     88000   0.048107777   -3.2245055      0             -3.1764447      0.001340846  
     90000   0.046343319   -3.2213479      0             -3.1750498     -0.071974386  
     92000   0.048109715   -3.2212435      0             -3.1731808     -0.099839544  
     94000   0.05172169    -3.2189346      0             -3.1672634     -0.063129758  
     96000   0.049519046   -3.2200954      0             -3.1706247     -0.010581513  
     98000   0.049998357   -3.2208485      0             -3.170899       0.0077424458 
    100000   0.046759321   -3.2193162      0             -3.1726025     -0.019864325  
    102000   0.049018722   -3.2193629      0             -3.1703921     -0.024382022  
    104000   0.050325952   -3.2178983      0             -3.1676215     -0.059950776  
    106000   0.048714887   -3.2225662      0             -3.1738989     -0.065253417  
    108000   0.048422457   -3.2182996      0             -3.1699244     -0.032923009  
    110000   0.051201367   -3.2203649      0             -3.1692136      0.05591492   
    112000   0.048979729   -3.219459       0             -3.1705271     -0.038876449  
    114000   0.045908855   -3.217145       0             -3.171281      -0.038921288  
    116000   0.049895926   -3.21969        0             -3.1698428     -0.030980828  
    118000   0.047080509   -3.2215613      0             -3.1745268     -0.071564593  
    120000   0.045336599   -3.2193269      0             -3.1740346     -0.070489082  
    122000   0.048340131   -3.2192699      0             -3.170977       0.0043741801 
    124000   0.049734739   -3.2201747      0             -3.1704885     -0.056491019  
    126000   0.045848725   -3.2238549      0             -3.178051      -0.051524643  
    128000   0.047647136   -3.2213328      0             -3.1737322     -0.053295537  
    130000   0.047738505   -3.2192267      0             -3.1715349      0.023672999  
    132000   0.047887464   -3.2222926      0             -3.1744519      0.035513773  
    134000   0.048420403   -3.2213508      0             -3.1729776     -0.038207971  
    136000   0.049564355   -3.2221303      0             -3.1726143     -0.030109305  
    138000   0.050896296   -3.2232837      0             -3.1724371     -0.034037754  
    140000   0.048370684   -3.2210027      0             -3.1726792      0.022830039  
    142000   0.048935785   -3.2247997      0             -3.1759117     -0.019274772  
    144000   0.047766213   -3.2243127      0             -3.1765932     -0.022769553  
    146000   0.045627625   -3.2282087      0             -3.1826257      0.037648642  
    148000   0.049917295   -3.2264814      0             -3.1766129     -0.040535219  
    150000   0.046628368   -3.2262853      0             -3.1797025     -0.069288299  
    152000   0.048545929   -3.2284578      0             -3.1799593     -0.030078025  
    154000   0.047466602   -3.2290222      0             -3.181602       0.0023900579 
    156000   0.046229244   -3.2267132      0             -3.1805291     -0.046666341  
    158000   0.049111182   -3.2251156      0             -3.1760524     -0.037987351  
    160000   0.048458499   -3.2278063      0             -3.1793952     -0.052171247  
    162000   0.050575742   -3.2282078      0             -3.1776814     -0.012378028  
    164000   0.04777892    -3.2252433      0             -3.177511       0.00051429222
    166000   0.049597177   -3.2272424      0             -3.1776937     -0.040024256  
    168000   0.04930753    -3.2272209      0             -3.1779615     -0.034695997  
    170000   0.049198203   -3.2263303      0             -3.1771802     -0.0033386155 
    172000   0.049422924   -3.2307974      0             -3.1814227     -0.036165839  
    174000   0.050418043   -3.2293691      0             -3.1790003     -0.021887269  
    176000   0.045313984   -3.22708        0             -3.1818103     -0.0043774009 
    178000   0.049602131   -3.2278744      0             -3.1783207      0.026943908  
    180000   0.049432658   -3.2254438      0             -3.1760594     -0.049313483  
    182000   0.049358538   -3.2287009      0             -3.1793906     -0.042779162  
    184000   0.04693715    -3.2293179      0             -3.1824266     -0.044963204  
    186000   0.04949334    -3.2284363      0             -3.1789913     -0.029907369  
    188000   0.048601014   -3.2252079      0             -3.1766544     -0.046772808  
    190000   0.047558665   -3.2256683      0             -3.1781561     -0.0094280314 
    192000   0.04780892    -3.2267013      0             -3.178939      -0.0029094108 
    194000   0.066573455   -3.2103331      0             -3.1438247      0.00098241161
    196000   0.063125591   -3.2059164      0             -3.1428525     -0.092600119  
    198000   0.064340097   -3.209277       0             -3.1449998     -0.043354636  
    200000   0.061324666   -3.2119775      0             -3.1507127      0.021751322  
Loop time of 13.4516 on 4 procs for 200000 steps with 1024 atoms

Performance: 3211502.051 tau/day, 14868.065 timesteps/s, 15.225 Matom-step/s
100.0% CPU use with 4 MPI tasks x no OpenMP threads

MPI task timing breakdown:
Section |  min time  |  avg time  |  max time  |%varavg| %total
---------------------------------------------------------------
Pair    | 4.2976     | 4.8621     | 5.6612     |  22.7 | 36.14
Neigh   | 0.34735    | 0.37269    | 0.40025    |   3.2 |  2.77
Comm    | 2.9438     | 3.8951     | 4.6209     |  31.2 | 28.96
Output  | 0.0024851  | 0.0027389  | 0.0029521  |   0.3 |  0.02
Modify  | 1.0099     | 1.1417     | 1.2626     |   9.6 |  8.49
Other   |            | 3.177      |            |       | 23.62

Nlocal:            256 ave         293 max         230 min
Histogram: 1 1 0 0 0 1 0 0 0 1
Nghost:         115.25 ave         148 max          90 min
Histogram: 1 1 0 0 0 1 0 0 0 1
Neighs:        3255.25 ave        3809 max        2874 min
Histogram: 1 0 1 1 0 0 0 0 0 1

Total # of neighbors = 13021
Ave neighs/atom = 12.71582
Neighbor list builds = 10000
Dangerous builds not checked
Total wall time: 0:00:13
