LAMMPS (2 Aug 2023)
Processor partition = 4
# 2d Lennard-Jones melt

units		lj
dimension	2
atom_style	atomic
boundary 	p p p

read_data       lammp.xyz.init
Reading data file ...
  orthogonal box = (0 0 -0.5) to (37.712362 37.712362 0.5)
  2 by 2 by 1 MPI processor grid
  reading atoms ...
  1024 atoms
  read_data CPU = 0.008 seconds

variable temp_val world 1.00e-02 1.4650e-02 1.9741e-02 2.6601e-02 3.5846e-02 4.8303e-02 6.5089e-02 8.7710e-02 1.1819e-01 1.5926e-01 2.1461e-01 2.8920e-01 3.8970e-01 5.2513e-01 7.0762e-01 9.5354e-01

variable Ntot equal 200000

#velocity        all create ${temp_val} 14903 loop geom

# enforce 2D dynamics
fix             enforce2d all enforce2d

pair_style	table linear 301
pair_coeff	1 1 ljgp.tab LJGP 2.5
WARNING: 1 of 301 force values in table LJGP are inconsistent with -dE/dr.
WARNING:  Should only be flagged at inflection points (../pair_table.cpp:466)

neighbor	0.3 bin
neigh_modify	every 20 delay 0 check no

timestep 0.0025
# TBEG=1.0 TEND=1.0 TDAMP=0.5
fix             1 all nvt temp ${temp_val} ${temp_val} $(100.0*dt)
fix             1 all nvt temp 3.5846e-02 ${temp_val} $(100.0*dt)
fix             1 all nvt temp 3.5846e-02 3.5846e-02 $(100.0*dt)
fix             1 all nvt temp 3.5846e-02 3.5846e-02 0.25

# output configuration every 500 steps
#dump 1 all atom 1000 dump.lammps.out
variable rep world 0 1 2 3 4 5 6 7 8 9 10 11 12 13 14 15
dump 1 all atom 40000 dump.temper.${rep}
dump 1 all atom 40000 dump.temper.4

thermo          2000
# run 5000 steps
#run             ${Ntot}

temper ${Ntot} 400 ${temp_val} 1 3847 58382
temper 200000 400 ${temp_val} 1 3847 58382
temper 200000 400 3.5846e-02 1 3847 58382
Generated 0 of 0 mixed pair_coeff terms from geometric mixing rule
Neighbor list info ...
  update: every = 20 steps, delay = 0 steps, check = no
  max neighbors/atom: 2000, page size: 100000
  master list distance cutoff = 2.8
  ghost atom cutoff = 2.8
  binsize = 1.4, bins = 27 27 1
  1 neighbor lists, perpetual/occasional/extra = 1 0 0
  (1) pair table, perpetual
      attributes: half, newton on
      pair build: half/bin/atomonly/newton
      stencil: half/bin/2d
      bin: standard
Per MPI rank memory allocation (min/avg/max) = 2.551 | 2.551 | 2.551 Mbytes
   Step          Temp          E_pair         E_mol          TotEng         Press     
         0   0             -1.5184298      0             -1.5184298     -2.8069358    
      2000   7.5736529e-27 -1.5184298      0             -1.5184298     -2.8069358    
      4000   0.027180016   -1.5703368      0             -1.5431833     -2.3619406    
      6000   0.042044996   -2.6017332      0             -2.5597292     -0.37089514   
      8000   0.053495506   -2.817574       0             -2.7641307     -0.081824399  
     10000   0.099171727   -2.8805197      0             -2.7814448     -0.12088642   
     12000   0.16311559    -2.8854058      0             -2.7224496      0.11022012   
     14000   0.14991056    -2.967894       0             -2.8181298     -0.055391542  
     16000   0.16477928    -3.0052964      0             -2.8406781     -0.013244171  
     18000   0.065621862   -3.1185263      0             -3.0529685     -0.084302397  
     20000   0.033601938   -3.158131       0             -3.1245619     -0.13124535   
     22000   0.026989251   -3.1702452      0             -3.1432823     -0.12774362   
     24000   0.027760258   -3.1697987      0             -3.1420655     -0.11198379   
     26000   0.047749771   -3.1450222      0             -3.097319      -0.18760763   
     28000   0.061125348   -3.1291212      0             -3.0680556     -0.089351488  
     30000   0.064769319   -3.1359687      0             -3.0712626     -0.025171337  
     32000   0.066027237   -3.1359344      0             -3.0699717     -0.048721583  
     34000   0.067229071   -3.1343142      0             -3.0671507     -0.14250889   
     36000   0.062882212   -3.1393068      0             -3.076486      -0.0080447241 
     38000   0.091668673   -3.1122881      0             -3.0207089      0.0016946458 
     40000   0.087450727   -3.1154632      0             -3.0280979     -0.011514286  
     42000   0.087772444   -3.1142984      0             -3.0266117     -0.096163707  
     44000   0.089056931   -3.1090706      0             -3.0201006     -0.024403863  
     46000   0.11738112    -3.0768443      0             -2.9595779     -0.031960219  
     48000   0.28072189    -2.8373765      0             -2.5569288      0.011967493  
     50000   0.28521533    -2.8366952      0             -2.5517584     -0.18096706   
     52000   0.28796859    -2.8379764      0             -2.550289      -0.23064547   
     54000   0.3008839     -2.869538       0             -2.5689479     -0.044914408  
     56000   0.31140446    -2.8975764      0             -2.5864761      0.027412518  
     58000   0.28840307    -2.912484       0             -2.6243626     -0.10120423   
     60000   0.28603921    -2.8995503      0             -2.6137904     -0.065879061  
     62000   0.30079353    -2.9213205      0             -2.6208207     -0.025121179  
     64000   0.29267882    -2.9082759      0             -2.6158829      0.012779862  
     66000   0.27481424    -2.9266305      0             -2.6520846     -0.061032537  
     68000   0.29122126    -2.9130904      0             -2.6221535      0.034721139  
     70000   0.28257883    -2.9199743      0             -2.6376714      0.010439947  
     72000   0.28951029    -2.9484023      0             -2.6591747     -0.035932955  
     74000   0.30889644    -2.9450572      0             -2.6364624     -0.22254686   
     76000   0.29291577    -2.9279234      0             -2.6352937     -0.18566358   
     78000   0.29088501    -2.9348485      0             -2.6442476     -0.26547026   
     80000   0.28424544    -2.9459366      0             -2.6619688     -0.079700406  
     82000   0.27930926    -2.9482124      0             -2.6691759     -0.18137813   
     84000   0.28410069    -2.9560415      0             -2.6722183     -0.13128814   
     86000   0.26791229    -2.9480644      0             -2.6804138     -0.23556304   
     88000   0.27357759    -2.9539116      0             -2.6806012     -0.21673042   
     90000   0.2807583     -2.9525299      0             -2.6720457     -0.20919424   
     92000   0.28592797    -2.9315008      0             -2.6458521     -0.12508555   
     94000   0.29598324    -2.9700709      0             -2.6743767     -0.044417089  
     96000   0.28362952    -2.9497359      0             -2.6663834     -0.10010164   
     98000   0.28969409    -2.9259279      0             -2.6365167     -0.11370669   
    100000   0.29321026    -2.9572707      0             -2.6643468     -0.010725582  
    102000   0.29355809    -2.9562822      0             -2.6630108     -0.074140896  
    104000   0.29035243    -2.9744484      0             -2.6843795     -0.12176931   
    106000   0.28820216    -2.9705985      0             -2.6826778     -0.020604754  
    108000   0.28061494    -2.9773453      0             -2.6970044     -0.18932195   
    110000   0.28021158    -2.9790258      0             -2.6990879     -0.071699583  
    112000   0.29938726    -2.9689647      0             -2.6698698     -0.093707432  
    114000   0.30186549    -2.9477562      0             -2.6461855     -0.093547449  
    116000   0.2711011     -2.9605235      0             -2.6896872     -0.016573634  
    118000   0.29763833    -2.9926295      0             -2.6952818     -0.0058341557 
    120000   0.3094059     -2.9608647      0             -2.651761      -0.0071960532 
    122000   0.30464633    -2.9747014      0             -2.6703526     -0.13533605   
    124000   0.29393203    -2.9932914      0             -2.6996464      0.097015034  
    126000   0.28784608    -2.9747703      0             -2.6872053     -0.2586593    
    128000   0.29059758    -2.9933952      0             -2.7030814     -0.057516079  
    130000   0.29438412    -2.992732       0             -2.6986353     -0.046262679  
    132000   0.27580984    -2.9832324      0             -2.7076919     -0.20158201   
    134000   0.30905586    -2.9861254      0             -2.6773713     -0.057119432  
    136000   0.29679167    -2.9833751      0             -2.6868733      0.06459061   
    138000   0.27480217    -2.9932565      0             -2.7187227     -0.016722435  
    140000   0.28932893    -2.984728       0             -2.6956816      0.0073721173 
    142000   0.28495442    -3.002518       0             -2.7178419     -0.078751778  
    144000   0.2729895     -2.9998046      0             -2.7270817     -0.25121212   
    146000   0.28637185    -3.0057392      0             -2.719647      -0.18555084   
    148000   0.28278557    -3.0248165      0             -2.7423071     -0.081032364  
    150000   0.28228323    -3.0085446      0             -2.7265371     -0.33898504   
    152000   0.29872275    -3.0076702      0             -2.7092392     -0.26855242   
    154000   0.29031378    -3.0105884      0             -2.7205581     -0.044078107  
    156000   0.27765607    -3.0106723      0             -2.7332874     -0.079109144  
    158000   0.27718465    -2.9922154      0             -2.7153015     -0.1307425    
    160000   0.29667602    -3.0292095      0             -2.7328232     -0.10822252   
    162000   0.28850113    -3.0037071      0             -2.7154877     -0.091398     
    164000   0.28516651    -3.0246954      0             -2.7398074     -0.0047416508 
    166000   0.30243143    -3.0136429      0             -2.7115068     -0.10195069   
    168000   0.27025127    -3.0071176      0             -2.7371303     -0.12956129   
    170000   0.28785857    -3.0137811      0             -2.7262036     -0.037999979  
    172000   0.28792298    -3.0039035      0             -2.7162617     -0.063197217  
    174000   0.2766507     -3.0125803      0             -2.7361997     -0.12855168   
    176000   0.28857548    -3.0061236      0             -2.7178299     -0.12300347   
    178000   0.29107512    -3.0030981      0             -2.7123072     -0.18875633   
    180000   0.28989576    -3.0015865      0             -2.7119738     -0.15406137   
    182000   0.2784801     -3.0171984      0             -2.7389902     -0.16262587   
    184000   0.30041619    -3.0198596      0             -2.7197368     -0.05533878   
    186000   0.26963538    -3.0210182      0             -2.7516462     -0.066965849  
    188000   0.27993933    -3.0066863      0             -2.7270203     -0.045654908  
    190000   0.29376973    -3.0122023      0             -2.7187195     -0.15280165   
    192000   0.21527188    -3.1196099      0             -2.9045483     -0.20005394   
    194000   0.21877893    -3.1042219      0             -2.8856566     -0.29574232   
    196000   0.21763647    -3.1220281      0             -2.9046042     -0.20743474   
    198000   0.208041      -3.117497       0             -2.9096592     -0.14803641   
    200000   0.21879953    -3.1308221      0             -2.9122362     -0.26799283   
Loop time of 13.4516 on 4 procs for 200000 steps with 1024 atoms

Performance: 3211502.699 tau/day, 14868.068 timesteps/s, 15.225 Matom-step/s
100.0% CPU use with 4 MPI tasks x no OpenMP threads

MPI task timing breakdown:
Section |  min time  |  avg time  |  max time  |%varavg| %total
---------------------------------------------------------------
Pair    | 3.8623     | 4.9036     | 6.0659     |  46.5 | 36.45
Neigh   | 0.41574    | 0.55133    | 0.70935    |  18.0 |  4.10
Comm    | 3.9259     | 5.2824     | 6.5438     |  52.8 | 39.27
Output  | 0.0025287  | 0.0027346  | 0.0028968  |   0.3 |  0.02
Modify  | 1.1208     | 1.1988     | 1.2588     |   4.7 |  8.91
Other   |            | 1.513      |            |       | 11.25

Nlocal:            256 ave         324 max         185 min
Histogram: 1 1 0 0 0 0 0 0 1 1
Nghost:            155 ave         184 max         136 min
Histogram: 1 1 0 0 1 0 0 0 0 1
Neighs:        3290.25 ave        4488 max        2430 min
Histogram: 2 0 0 0 0 0 1 0 0 1

Total # of neighbors = 13161
Ave neighs/atom = 12.852539
Neighbor list builds = 10000
Dangerous builds not checked
Total wall time: 0:00:13
