LAMMPS (2 Aug 2023)
Processor partition = 8
# 2d Lennard-Jones melt

units		lj
dimension	2
atom_style	atomic
boundary 	p p p

read_data       lammp.xyz.init
Reading data file ...
  orthogonal box = (0 0 -0.5) to (37.712362 37.712362 0.5)
  2 by 2 by 1 MPI processor grid
  reading atoms ...
  1024 atoms
  read_data CPU = 0.006 seconds

variable temp_val world 1.00e-02 1.4650e-02 1.9741e-02 2.6601e-02 3.5846e-02 4.8303e-02 6.5089e-02 8.7710e-02 1.1819e-01 1.5926e-01 2.1461e-01 2.8920e-01 3.8970e-01 5.2513e-01 7.0762e-01 9.5354e-01

variable Ntot equal 200000

#velocity        all create ${temp_val} 14903 loop geom

# enforce 2D dynamics
fix             enforce2d all enforce2d

pair_style	table linear 301
pair_coeff	1 1 ljgp.tab LJGP 2.5
WARNING: 1 of 301 force values in table LJGP are inconsistent with -dE/dr.
WARNING:  Should only be flagged at inflection points (../pair_table.cpp:466)

neighbor	0.3 bin
neigh_modify	every 20 delay 0 check no

timestep 0.0025
# TBEG=1.0 TEND=1.0 TDAMP=0.5
fix             1 all nvt temp ${temp_val} ${temp_val} $(100.0*dt)
fix             1 all nvt temp 1.1819e-01 ${temp_val} $(100.0*dt)
fix             1 all nvt temp 1.1819e-01 1.1819e-01 $(100.0*dt)
fix             1 all nvt temp 1.1819e-01 1.1819e-01 0.25

# output configuration every 500 steps
#dump 1 all atom 1000 dump.lammps.out
variable rep world 0 1 2 3 4 5 6 7 8 9 10 11 12 13 14 15
dump 1 all atom 40000 dump.temper.${rep}
dump 1 all atom 40000 dump.temper.8

thermo          2000
# run 5000 steps
#run             ${Ntot}

temper ${Ntot} 400 ${temp_val} 1 3847 58382
temper 200000 400 ${temp_val} 1 3847 58382
temper 200000 400 1.1819e-01 1 3847 58382
Generated 0 of 0 mixed pair_coeff terms from geometric mixing rule
Neighbor list info ...
  update: every = 20 steps, delay = 0 steps, check = no
  max neighbors/atom: 2000, page size: 100000
  master list distance cutoff = 2.8
  ghost atom cutoff = 2.8
  binsize = 1.4, bins = 27 27 1
  1 neighbor lists, perpetual/occasional/extra = 1 0 0
  (1) pair table, perpetual
      attributes: half, newton on
      pair build: half/bin/atomonly/newton
      stencil: half/bin/2d
      bin: standard
Per MPI rank memory allocation (min/avg/max) = 2.551 | 2.551 | 2.551 Mbytes
   Step          Temp          E_pair         E_mol          TotEng         Press     
         0   0             -1.5184298      0             -1.5184298     -2.8069358    
      2000   7.5736485e-27 -1.5184298      0             -1.5184298     -2.8069358    
      4000   0.0765336     -1.5598546      0             -1.4833957     -2.4069568    
      6000   0.12357631    -2.7148806      0             -2.5914249     -0.08710957   
      8000   0.17149058    -2.8231353      0             -2.6518122     -0.11286357   
     10000   0.11146379    -2.9894403      0             -2.8780854      0.0099475916 
     12000   0.061343904   -3.0680939      0             -3.0068099      0.031170258  
     14000   0.048044814   -3.1054267      0             -3.0574288     -0.0075375343 
     16000   0.05167252    -3.103035       0             -3.051413       0.018194023  
     18000   0.019740801   -3.1356237      0             -3.1159022      0.0018566712 
     20000   0.014187541   -3.14064        0             -3.1264664      0.049864541  
     22000   0.020298074   -3.1343772      0             -3.114099      -0.010662598  
     24000   0.035430334   -3.1400546      0             -3.1046589      0.043444031  
     26000   0.08934617    -3.084484       0             -2.9952251     -0.076754314  
     28000   0.12078334    -3.0799719      0             -2.9593065      0.026289475  
     30000   0.12265941    -3.0898823      0             -2.9673427      0.016433566  
     32000   0.12151334    -3.0937408      0             -2.9723462     -0.14712772   
     34000   0.1175596     -3.1069332      0             -2.9894884     -0.013204321  
     36000   0.086297857   -3.1566497      0             -3.0704361     -0.073673902  
     38000   0.049878284   -3.2223394      0             -3.1725099     -0.017219638  
     40000   0.049626354   -3.2213111      0             -3.1717332      0.080421628  
     42000   0.048546451   -3.2193631      0             -3.1708641     -0.088401376  
     44000   0.050494682   -3.2227857      0             -3.1723404      0.0071178887 
     46000   0.04800039    -3.2198496      0             -3.1718961     -0.15215186   
     48000   0.046867987   -3.2214259      0             -3.1746037      0.0052488324 
     50000   0.0503833     -3.2251994      0             -3.1748653     -0.015540298  
     52000   0.048706955   -3.2205018      0             -3.1718424     -0.061553224  
     54000   0.046550484   -3.2231343      0             -3.1766293      0.031797807  
     56000   0.046027373   -3.2213683      0             -3.1753858     -0.083861303  
     58000   0.048984969   -3.2230184      0             -3.1740812      0.008655301  
     60000   0.048156284   -3.220414       0             -3.1723047     -0.043641016  
     62000   0.04767273    -3.2231106      0             -3.1754844     -0.0075225177 
     64000   0.050725192   -3.223082       0             -3.1724064      0.050217253  
     66000   0.048942654   -3.2205328      0             -3.1716379      0.060397675  
     68000   0.051598791   -3.2219396      0             -3.1703912      0.035996934  
     70000   0.048114636   -3.2239776      0             -3.17591       -0.013129144  
     72000   0.066348434   -3.2063217      0             -3.140038       0.00026958288
     74000   0.063246206   -3.2081567      0             -3.1449722      0.038418436  
     76000   0.089315614   -3.1757188      0             -3.0864904      0.011051278  
     78000   0.084276844   -3.1782156      0             -3.094021       0.052536096  
     80000   0.090149043   -3.1786098      0             -3.0885488      0.067717509  
     82000   0.085615711   -3.1866906      0             -3.1011585     -0.029896629  
     84000   0.088025215   -3.1884907      0             -3.1005514     -0.095814454  
     86000   0.081395067   -3.1792678      0             -3.0979522     -0.054395139  
     88000   0.088948355   -3.1800098      0             -3.0911484     -0.046623876  
     90000   0.082689754   -3.1861216      0             -3.1035126     -0.064099074  
     92000   0.086446166   -3.1862706      0             -3.0999089      0.043392207  
     94000   0.088304078   -3.1758119      0             -3.0875941     -0.085347071  
     96000   0.088219947   -3.1897663      0             -3.1016325      0.029914579  
     98000   0.084853197   -3.1822671      0             -3.0974968      0.034082273  
    100000   0.084575253   -3.183598       0             -3.0991053      0.014216735  
    102000   0.086359623   -3.1839674      0             -3.0976921      0.0323427    
    104000   0.083366908   -3.1839344      0             -3.1006489     -0.033019709  
    106000   0.088789382   -3.1874103      0             -3.0987077     -0.018589604  
    108000   0.087351996   -3.1829344      0             -3.0956678      0.030975376  
    110000   0.093729459   -3.1815429      0             -3.087905      -0.017420892  
    112000   0.087511592   -3.1856143      0             -3.0981882     -0.035041637  
    114000   0.088881456   -3.1796628      0             -3.0908682     -0.030839382  
    116000   0.091711127   -3.1835142      0             -3.0918926      0.040502478  
    118000   0.088155403   -3.1823248      0             -3.0942555     -0.018709817  
    120000   0.090655712   -3.1822587      0             -3.0916915      0.049016328  
    122000   0.090508939   -3.1857158      0             -3.0952952      0.020038856  
    124000   0.087629409   -3.1825559      0             -3.0950121     -0.013135226  
    126000   0.087590127   -3.1855027      0             -3.0979981      0.035591966  
    128000   0.088538247   -3.1782181      0             -3.0897663      0.05391763   
    130000   0.083718318   -3.1868451      0             -3.1032085     -0.05741797   
    132000   0.088439188   -3.1818987      0             -3.0935459      0.038493512  
    134000   0.088201562   -3.1835898      0             -3.0954744      0.030354598  
    136000   0.086970939   -3.1781427      0             -3.0912567     -0.091712442  
    138000   0.090198521   -3.184585       0             -3.0944746      0.10696354   
    140000   0.086801442   -3.1851687      0             -3.098452      -0.049698429  
    142000   0.087128185   -3.1843844      0             -3.0973413      0.080270407  
    144000   0.089757217   -3.1756656      0             -3.085996      -0.046041424  
    146000   0.086628088   -3.1854996      0             -3.0989561      0.022127895  
    148000   0.089995223   -3.1866496      0             -3.0967423      0.027401408  
    150000   0.087125885   -3.1849401      0             -3.0978993     -0.010947572  
    152000   0.083125318   -3.1801343      0             -3.0970902      0.028775381  
    154000   0.091538145   -3.1790539      0             -3.0876052     -0.034838109  
    156000   0.087749483   -3.1870841      0             -3.0994203      0.0091595676 
    158000   0.087239092   -3.1837991      0             -3.0966452      0.015543218  
    160000   0.085406209   -3.1859246      0             -3.1006018      0.082283291  
    162000   0.087056502   -3.1856544      0             -3.0986829      0.0937135    
    164000   0.091712261   -3.1863405      0             -3.0947178     -0.026043527  
    166000   0.086162184   -3.1891451      0             -3.1030671      0.037680878  
    168000   0.091085418   -3.1897925      0             -3.098796       0.032079181  
    170000   0.089827838   -3.1821166      0             -3.0923765      0.027503935  
    172000   0.087217096   -3.1867743      0             -3.0996423     -0.035983477  
    174000   0.088955592   -3.1865199      0             -3.0976512      0.014547761  
    176000   0.088295004   -3.1841337      0             -3.095925      -0.076171088  
    178000   0.087239781   -3.1808913      0             -3.0937367      0.05646188   
    180000   0.087781935   -3.1826318      0             -3.0949356     -0.081823681  
    182000   0.088669989   -3.1807147      0             -3.0921313      0.043189643  
    184000   0.090555091   -3.1877967      0             -3.09733       -0.085671793  
    186000   0.086993585   -3.1836564      0             -3.0967477      0.014094744  
    188000   0.085028506   -3.1861052      0             -3.1011598     -0.021477982  
    190000   0.089468661   -3.185305       0             -3.0959237      0.041403125  
    192000   0.089157833   -3.1854663      0             -3.0963955     -0.013615268  
    194000   0.090424298   -3.1864152      0             -3.0960792      0.029261173  
    196000   0.090821989   -3.1903039      0             -3.0995706     -0.025578727  
    198000   0.084772462   -3.1851237      0             -3.100434       0.063817877  
    200000   0.085425061   -3.1854325      0             -3.1000908      0.029958438  
Loop time of 13.4519 on 4 procs for 200000 steps with 1024 atoms

Performance: 3211445.517 tau/day, 14867.803 timesteps/s, 15.225 Matom-step/s
100.0% CPU use with 4 MPI tasks x no OpenMP threads

MPI task timing breakdown:
Section |  min time  |  avg time  |  max time  |%varavg| %total
---------------------------------------------------------------
Pair    | 3.75       | 4.8466     | 6.1315     |  44.3 | 36.03
Neigh   | 0.33056    | 0.44064    | 0.57534    |  16.7 |  3.28
Comm    | 3.3804     | 4.7955     | 6.0321     |  48.9 | 35.65
Output  | 0.0024389  | 0.0026118  | 0.0027778  |   0.3 |  0.02
Modify  | 1.2085     | 1.2479     | 1.3193     |   3.8 |  9.28
Other   |            | 2.119      |            |       | 15.75

Nlocal:            256 ave         307 max         192 min
Histogram: 1 0 0 0 1 0 0 0 1 1
Nghost:          109.5 ave         116 max          97 min
Histogram: 1 0 0 0 0 0 1 0 0 2
Neighs:           3246 ave        4143 max        2483 min
Histogram: 2 0 0 0 0 0 0 1 0 1

Total # of neighbors = 12984
Ave neighs/atom = 12.679688
Neighbor list builds = 10000
Dangerous builds not checked
Total wall time: 0:00:13
