LAMMPS (2 Aug 2023)
Processor partition = 3
# 2d Lennard-Jones melt

units		lj
dimension	2
atom_style	atomic
boundary 	p p p

read_data       lammp.xyz.init
Reading data file ...
  orthogonal box = (0 0 -0.5) to (37.712362 37.712362 0.5)
  2 by 2 by 1 MPI processor grid
  reading atoms ...
  1024 atoms
  read_data CPU = 0.009 seconds

variable temp_val world 1.00e-02 1.4650e-02 1.9741e-02 2.6601e-02 3.5846e-02 4.8303e-02 6.5089e-02 8.7710e-02 1.1819e-01 1.5926e-01 2.1461e-01 2.8920e-01 3.8970e-01 5.2513e-01 7.0762e-01 9.5354e-01

variable Ntot equal 200000

#velocity        all create ${temp_val} 14903 loop geom

# enforce 2D dynamics
fix             enforce2d all enforce2d

pair_style	table linear 301
pair_coeff	1 1 ljgp.tab LJGP 2.5
WARNING: 1 of 301 force values in table LJGP are inconsistent with -dE/dr.
WARNING:  Should only be flagged at inflection points (../pair_table.cpp:466)

neighbor	0.3 bin
neigh_modify	every 20 delay 0 check no

timestep 0.0025
# TBEG=1.0 TEND=1.0 TDAMP=0.5
fix             1 all nvt temp ${temp_val} ${temp_val} $(100.0*dt)
fix             1 all nvt temp 2.6601e-02 ${temp_val} $(100.0*dt)
fix             1 all nvt temp 2.6601e-02 2.6601e-02 $(100.0*dt)
fix             1 all nvt temp 2.6601e-02 2.6601e-02 0.25

# output configuration every 500 steps
#dump 1 all atom 1000 dump.lammps.out
variable rep world 0 1 2 3 4 5 6 7 8 9 10 11 12 13 14 15
dump 1 all atom 40000 dump.temper.${rep}
dump 1 all atom 40000 dump.temper.3

thermo          2000
# run 5000 steps
#run             ${Ntot}

temper ${Ntot} 400 ${temp_val} 1 3847 58382
temper 200000 400 ${temp_val} 1 3847 58382
temper 200000 400 2.6601e-02 1 3847 58382
Generated 0 of 0 mixed pair_coeff terms from geometric mixing rule
Neighbor list info ...
  update: every = 20 steps, delay = 0 steps, check = no
  max neighbors/atom: 2000, page size: 100000
  master list distance cutoff = 2.8
  ghost atom cutoff = 2.8
  binsize = 1.4, bins = 27 27 1
  1 neighbor lists, perpetual/occasional/extra = 1 0 0
  (1) pair table, perpetual
      attributes: half, newton on
      pair build: half/bin/atomonly/newton
      stencil: half/bin/2d
      bin: standard
Per MPI rank memory allocation (min/avg/max) = 2.551 | 2.551 | 2.551 Mbytes
   Step          Temp          E_pair         E_mol          TotEng         Press     
         0   0             -1.5184298      0             -1.5184298     -2.8069358    
      2000   1.8377572e-25 -1.5184298      0             -1.5184298     -2.8069358    
      4000   0.063541395   -1.6023961      0             -1.5389168     -1.9474247    
      6000   0.029779096   -2.6543586      0             -2.6246086     -0.30600668   
      8000   0.020159319   -2.8756002      0             -2.8554606     -0.17323288   
     10000   0.0093578214  -2.9601601      0             -2.9508114     -0.062917849  
     12000   0.01412061    -2.9917658      0             -2.9776589     -0.086258084  
     14000   0.021045452   -3.020198       0             -2.9991731     -0.066852831  
     16000   0.019630473   -3.0390106      0             -3.0193993     -0.11074574   
     18000   0.049432509   -3.0520309      0             -3.0026466     -0.11411661   
     20000   0.090005214   -3.0495239      0             -2.9596066      0.080765976  
     22000   0.083678559   -3.0837394      0             -3.0001426     -0.1316283    
     24000   0.16107177    -3.0357868      0             -2.8748723     -0.21127576   
     26000   0.11460785    -3.1419991      0             -3.0275032      0.084906661  
     28000   0.03861878    -3.236276       0             -3.1976949     -0.081766228  
     30000   0.018597869   -3.2691054      0             -3.2505257      0.0058428863 
     32000   0.020988528   -3.2898022      0             -3.2688342      0.054451441  
     34000   0.019639074   -3.2943467      0             -3.2747268      0.014988292  
     36000   0.019626697   -3.2933616      0             -3.2737541     -0.024686714  
     38000   0.021393677   -3.2964856      0             -3.2751128      0.10807417   
     40000   0.019294711   -3.2957172      0             -3.2764413      0.049280948  
     42000   0.018768702   -3.2934018      0             -3.2746514     -0.0073385226 
     44000   0.020034456   -3.2949676      0             -3.2749527     -0.023078574  
     46000   0.018874664   -3.2954786      0             -3.2766224      0.045554052  
     48000   0.018853843   -3.2951683      0             -3.2763328      0.067903314  
     50000   0.019975628   -3.2971101      0             -3.277154       0.020287631  
     52000   0.019333184   -3.2950761      0             -3.2757618     -0.10349373   
     54000   0.019894887   -3.2943201      0             -3.2744446     -0.010091922  
     56000   0.020133905   -3.2952107      0             -3.2750965      0.008275905  
     58000   0.019673335   -3.2953156      0             -3.2756615      0.018116782  
     60000   0.021092674   -3.2944772      0             -3.2734051     -0.069925871  
     62000   0.019650868   -3.2957894      0             -3.2761577     -0.0064548776 
     64000   0.019867689   -3.2937098      0             -3.2738615      0.010886835  
     66000   0.01907375    -3.2930865      0             -3.2740314     -0.0077013736 
     68000   0.019980668   -3.2953067      0             -3.2753456      0.04544639   
     70000   0.019034807   -3.2960391      0             -3.2770229     -0.01474866   
     72000   0.020190069   -3.296006       0             -3.2758356      0.033716055  
     74000   0.019419825   -3.2953702      0             -3.2759693      0.066183055  
     76000   0.020075205   -3.2957838      0             -3.2757282      0.0065941996 
     78000   0.026063677   -3.2876392      0             -3.261601      -0.06069922   
     80000   0.025477997   -3.2979062      0             -3.272453       0.14172868   
     82000   0.026784051   -3.295417       0             -3.2686591      0.022018452  
     84000   0.025390391   -3.2939049      0             -3.2685393      0.009779629  
     86000   0.0261454     -3.3003121      0             -3.2741922      0.015085352  
     88000   0.025842938   -3.2977139      0             -3.2718962      0.13279099   
     90000   0.028031299   -3.3015873      0             -3.2735834      0.026694361  
     92000   0.028964809   -3.3024485      0             -3.273512       0.14657086   
     94000   0.026098094   -3.3093369      0             -3.2832643      0.061694647  
     96000   0.026796579   -3.3087241      0             -3.2819536      0.1118125    
     98000   0.028025298   -3.3082067      0             -3.2802087      0.083772586  
    100000   0.026871105   -3.3097833      0             -3.2829384      0.16786643   
    102000   0.026859924   -3.3084755      0             -3.2816418      0.035526022  
    104000   0.027269744   -3.3089151      0             -3.281672       0.068451149  
    106000   0.026097456   -3.3081024      0             -3.2820304      0.044421069  
    108000   0.026447434   -3.3089295      0             -3.2825079      0.25699505   
    110000   0.028177889   -3.3093336      0             -3.2811832      0.086884374  
    112000   0.027187937   -3.3115298      0             -3.2843684      0.1084471    
    114000   0.027308919   -3.3094379      0             -3.2821556      0.082365558  
    116000   0.025863712   -3.3103122      0             -3.2844737      0.16570033   
    118000   0.026312903   -3.3088082      0             -3.282521       0.092276687  
    120000   0.026829581   -3.30777        0             -3.2809666      0.096062126  
    122000   0.02631063    -3.3104438      0             -3.2841588      0.077162244  
    124000   0.027069817   -3.3092067      0             -3.2821633      0.15842607   
    126000   0.026972435   -3.309608       0             -3.2826619      0.030347532  
    128000   0.026538319   -3.310099       0             -3.2835866      0.13242384   
    130000   0.026632335   -3.3095558      0             -3.2829495      0.082438717  
    132000   0.02585485    -3.3102779      0             -3.2844483      0.11960716   
    134000   0.027272304   -3.3087647      0             -3.281519       0.042060755  
    136000   0.025353996   -3.3101828      0             -3.2848535      0.11305939   
    138000   0.02640571    -3.3101096      0             -3.2837297      0.10328908   
    140000   0.025562841   -3.3084863      0             -3.2829484      0.062749981  
    142000   0.028660835   -3.3080045      0             -3.2793717      0.006370335  
    144000   0.025394422   -3.3099562      0             -3.2845865      0.077265098  
    146000   0.026812493   -3.3091657      0             -3.2823794      0.069582559  
    148000   0.026999612   -3.3100745      0             -3.2831012      0.048346171  
    150000   0.02718278    -3.3088793      0             -3.281723       0.052453983  
    152000   0.027058264   -3.3090569      0             -3.2820251      0.11051157   
    154000   0.026210918   -3.3096473      0             -3.283462       0.024663157  
    156000   0.026292313   -3.3080956      0             -3.281829       0.033430305  
    158000   0.025068611   -3.3094606      0             -3.2844165      0.055295276  
    160000   0.027333952   -3.3104956      0             -3.2831883      0.091216126  
    162000   0.026695494   -3.3086655      0             -3.2819961      0.090383764  
    164000   0.02702491    -3.3086877      0             -3.2816891      0.036216792  
    166000   0.026523843   -3.3093881      0             -3.2828902      0.068516806  
    168000   0.024689632   -3.3106874      0             -3.2860219      0.11116142   
    170000   0.026456606   -3.30839        0             -3.2819592      0.018910085  
    172000   0.02602996    -3.3097207      0             -3.2837162      0.048625951  
    174000   0.027523562   -3.3089533      0             -3.2814566      0.06866462   
    176000   0.026920981   -3.3098387      0             -3.282944       0.032048133  
    178000   0.026074646   -3.3079556      0             -3.2819065      0.064797014  
    180000   0.026852607   -3.308559       0             -3.2817326      0.096142991  
    182000   0.026318767   -3.3109841      0             -3.284691       0.080904185  
    184000   0.027231499   -3.3101567      0             -3.2829518      0.082142746  
    186000   0.026011884   -3.3085018      0             -3.2825153      0.050323001  
    188000   0.025388429   -3.3111713      0             -3.2858077      0.078446892  
    190000   0.02579154    -3.3098607      0             -3.2840944      0.091740735  
    192000   0.027735757   -3.3090752      0             -3.2813665      0.077772562  
    194000   0.026999316   -3.3105073      0             -3.2835343      0.089152385  
    196000   0.02597991    -3.3105444      0             -3.2845899      0.065355308  
    198000   0.025989631   -3.3101078      0             -3.2841436      0.090026402  
    200000   0.02576944    -3.3089733      0             -3.283229       0.09250981   
Loop time of 13.4517 on 4 procs for 200000 steps with 1024 atoms

Performance: 3211501.273 tau/day, 14868.061 timesteps/s, 15.225 Matom-step/s
100.0% CPU use with 4 MPI tasks x no OpenMP threads

MPI task timing breakdown:
Section |  min time  |  avg time  |  max time  |%varavg| %total
---------------------------------------------------------------
Pair    | 3.6578     | 4.954      | 6.2114     |  41.1 | 36.83
Neigh   | 0.28276    | 0.37965    | 0.44375    |   9.7 |  2.82
Comm    | 3.3945     | 4.7665     | 6.2244     |  46.7 | 35.43
Output  | 0.0025226  | 0.0027066  | 0.0028881  |   0.3 |  0.02
Modify  | 1.1218     | 1.1805     | 1.2412     |   4.9 |  8.78
Other   |            | 2.168      |            |       | 16.12

Nlocal:            256 ave         311 max         197 min
Histogram: 1 0 0 1 0 0 1 0 0 1
Nghost:         147.75 ave         153 max         138 min
Histogram: 1 0 0 0 0 0 1 0 0 2
Neighs:         3356.5 ave        4154 max        2449 min
Histogram: 1 0 0 0 0 2 0 0 0 1

Total # of neighbors = 13426
Ave neighs/atom = 13.111328
Neighbor list builds = 10000
Dangerous builds not checked
Total wall time: 0:00:13
