LAMMPS (2 Aug 2023)
Processor partition = 1
# 2d Lennard-Jones melt

units		lj
dimension	2
atom_style	atomic
boundary 	p p p

read_data       lammp.xyz.init
Reading data file ...
  orthogonal box = (0 0 -0.5) to (37.712362 37.712362 0.5)
  2 by 2 by 1 MPI processor grid
  reading atoms ...
  1024 atoms
  read_data CPU = 0.008 seconds

variable temp_val world 1.00e-02 1.4650e-02 1.9741e-02 2.6601e-02 3.5846e-02 4.8303e-02 6.5089e-02 8.7710e-02 1.1819e-01 1.5926e-01 2.1461e-01 2.8920e-01 3.8970e-01 5.2513e-01 7.0762e-01 9.5354e-01

variable Ntot equal 200000

#velocity        all create ${temp_val} 14903 loop geom

# enforce 2D dynamics
fix             enforce2d all enforce2d

pair_style	table linear 301
pair_coeff	1 1 ljgp.tab LJGP 2.5
WARNING: 1 of 301 force values in table LJGP are inconsistent with -dE/dr.
WARNING:  Should only be flagged at inflection points (../pair_table.cpp:466)

neighbor	0.3 bin
neigh_modify	every 20 delay 0 check no

timestep 0.0025
# TBEG=1.0 TEND=1.0 TDAMP=0.5
fix             1 all nvt temp ${temp_val} ${temp_val} $(100.0*dt)
fix             1 all nvt temp 1.4650e-02 ${temp_val} $(100.0*dt)
fix             1 all nvt temp 1.4650e-02 1.4650e-02 $(100.0*dt)
fix             1 all nvt temp 1.4650e-02 1.4650e-02 0.25

# output configuration every 500 steps
#dump 1 all atom 1000 dump.lammps.out
variable rep world 0 1 2 3 4 5 6 7 8 9 10 11 12 13 14 15
dump 1 all atom 40000 dump.temper.${rep}
dump 1 all atom 40000 dump.temper.1

thermo          2000
# run 5000 steps
#run             ${Ntot}

temper ${Ntot} 400 ${temp_val} 1 3847 58382
temper 200000 400 ${temp_val} 1 3847 58382
temper 200000 400 1.4650e-02 1 3847 58382
Generated 0 of 0 mixed pair_coeff terms from geometric mixing rule
Neighbor list info ...
  update: every = 20 steps, delay = 0 steps, check = no
  max neighbors/atom: 2000, page size: 100000
  master list distance cutoff = 2.8
  ghost atom cutoff = 2.8
  binsize = 1.4, bins = 27 27 1
  1 neighbor lists, perpetual/occasional/extra = 1 0 0
  (1) pair table, perpetual
      attributes: half, newton on
      pair build: half/bin/atomonly/newton
      stencil: half/bin/2d
      bin: standard
Per MPI rank memory allocation (min/avg/max) = 2.551 | 2.551 | 2.551 Mbytes
   Step          Temp          E_pair         E_mol          TotEng         Press     
         0   0             -1.5184298      0             -1.5184298     -2.8069358    
      2000   1.9487745e-25 -1.5184298      0             -1.5184298     -2.8069358    
      4000   0.054113109   -1.6227722      0             -1.5687119     -1.5439592    
      6000   0.021247501   -2.6220534      0             -2.6008266     -0.36818804   
      8000   0.010845228   -2.821527       0             -2.8106924     -0.24751366   
     10000   0.014775422   -2.8967777      0             -2.8820167     -0.21015484   
     12000   0.029192565   -2.9676789      0             -2.9385149     -0.13444169   
     14000   0.034020013   -3.0119879      0             -2.9780011     -0.048499257  
     16000   0.034550628   -3.0556483      0             -3.0211314     -0.021899337  
     18000   0.083013768   -3.0526267      0             -2.969694      -0.010355686  
     20000   0.065856071   -3.124898       0             -3.0591063     -0.001077079  
     22000   0.05208642    -3.1479051      0             -3.0958695      0.021234003  
     24000   0.01899849    -3.1846075      0             -3.1656276     -0.12099168   
     26000   0.026414433   -3.1815995      0             -3.1552109     -0.060367294  
     28000   0.047462705   -3.1596606      0             -3.1122442      0.1447658    
     30000   0.049877312   -3.1588863      0             -3.1090577     -0.067057985  
     32000   0.05102994    -3.1606276      0             -3.1096475     -0.050032381  
     34000   0.046595062   -3.1583756      0             -3.111826      -0.042141891  
     36000   0.049087604   -3.1565385      0             -3.1074989     -0.13186694   
     38000   0.066815048   -3.1517845      0             -3.0850347      0.14383994   
     40000   0.061959361   -3.1559028      0             -3.094004      -0.015760168  
     42000   0.063523139   -3.1565629      0             -3.0931017      0.017095756  
     44000   0.068464734   -3.1593977      0             -3.0909999     -0.021401271  
     46000   0.065217651   -3.1561229      0             -3.0909689     -0.016229818  
     48000   0.061893915   -3.159231       0             -3.0973976     -0.053096321  
     50000   0.063702757   -3.1589962      0             -3.0953556     -0.04080769   
     52000   0.063288901   -3.1622738      0             -3.0990467      0.0192454    
     54000   0.064263947   -3.1667248      0             -3.1025236     -0.060804287  
     56000   0.065265065   -3.1639122      0             -3.0987109     -0.14285676   
     58000   0.063098523   -3.1641703      0             -3.1011334     -0.018581957  
     60000   0.064137702   -3.1755291      0             -3.111454      -0.11700213   
     62000   0.063653866   -3.188311       0             -3.1247193      0.073804427  
     64000   0.064172882   -3.2043888      0             -3.1402786     -0.023551646  
     66000   0.063170881   -3.2083237      0             -3.1452145     -0.00025915127
     68000   0.061574344   -3.2212163      0             -3.1597021      0.17089021   
     70000   0.064964901   -3.225609       0             -3.1607075     -0.044651498  
     72000   0.046222475   -3.2431666      0             -3.1969893      0.13328454   
     74000   0.037661524   -3.2560806      0             -3.2184559     -0.056962471  
     76000   0.026743207   -3.2650843      0             -3.2383672     -0.08148437   
     78000   0.037594406   -3.2581096      0             -3.2205519      0.015124909  
     80000   0.036512499   -3.2572301      0             -3.2207533     -0.067627067  
     82000   0.035858231   -3.2561857      0             -3.2203624     -0.079269056  
     84000   0.036256437   -3.2572919      0             -3.2210709     -0.066369106  
     86000   0.033886945   -3.258719       0             -3.2248651     -0.045705854  
     88000   0.036499089   -3.2553361      0             -3.2188727     -0.020665444  
     90000   0.035589369   -3.2578255      0             -3.2222709     -0.044146458  
     92000   0.037075242   -3.254743       0             -3.2177039     -0.13982637   
     94000   0.035672534   -3.2555123      0             -3.2198746     -0.014367701  
     96000   0.03494865    -3.2550939      0             -3.2201793     -0.062585055  
     98000   0.034972848   -3.2563727      0             -3.221434      -0.062431901  
    100000   0.034842326   -3.2568098      0             -3.2220015     -0.022031065  
    102000   0.035526624   -3.2560008      0             -3.2205088     -0.013582602  
    104000   0.0369588     -3.255708       0             -3.2187853     -0.026530697  
    106000   0.035130123   -3.255418       0             -3.2203222      0.017441029  
    108000   0.036385932   -3.2574336      0             -3.2210832     -0.093453359  
    110000   0.037334168   -3.2570236      0             -3.2197259     -0.0845799    
    112000   0.035862571   -3.2548758      0             -3.2190482     -0.011033237  
    114000   0.036030948   -3.2571412      0             -3.2211454     -0.089204587  
    116000   0.035972998   -3.2571158      0             -3.221178      -0.02602508   
    118000   0.035987177   -3.2573776      0             -3.2214255     -0.062753229  
    120000   0.037241672   -3.2555329      0             -3.2183276     -0.060285594  
    122000   0.034301961   -3.2573874      0             -3.2231189     -0.010344894  
    124000   0.035681177   -3.2562571      0             -3.2206107     -0.017044737  
    126000   0.034752812   -3.2566153      0             -3.2218964     -0.053441153  
    128000   0.036675875   -3.2575945      0             -3.2209544      0.0045663083 
    130000   0.034837812   -3.2579099      0             -3.2231061     -0.044745169  
    132000   0.035127062   -3.2572126      0             -3.2221198     -0.060946323  
    134000   0.033399404   -3.2570424      0             -3.2236756     -0.020153313  
    136000   0.034982875   -3.255949       0             -3.2210002     -0.052891616  
    138000   0.034106251   -3.2550881      0             -3.2210151     -0.083281574  
    140000   0.037338593   -3.256851       0             -3.2195489     -0.03396089   
    142000   0.035654249   -3.2549719      0             -3.2193525     -0.04039874   
    144000   0.036871889   -3.2559801      0             -3.2191443     -0.036155399  
    146000   0.035025876   -3.2575834      0             -3.2225917      0.021621111  
    148000   0.035641115   -3.2581235      0             -3.2225172     -0.025419412  
    150000   0.034525667   -3.2572867      0             -3.2227947     -0.042015969  
    152000   0.035222275   -3.2585925      0             -3.2234046     -0.087832266  
    154000   0.036881486   -3.2542916      0             -3.2174461     -0.03818736   
    156000   0.035031186   -3.2579079      0             -3.2229109     -0.021449712  
    158000   0.035745577   -3.2554808      0             -3.2197702     -0.041175165  
    160000   0.035709538   -3.256417       0             -3.2207423     -0.027493437  
    162000   0.036849126   -3.2574631      0             -3.22065       -0.026927176  
    164000   0.035328674   -3.256804       0             -3.2215099     -0.041820515  
    166000   0.035102906   -3.2549982      0             -3.2199296     -0.056952053  
    168000   0.0340738     -3.2568389      0             -3.2227984      0.0078362539 
    170000   0.036115153   -3.2560651      0             -3.2199853     -0.012264169  
    172000   0.036148599   -3.2546883      0             -3.218575      -0.006356577  
    174000   0.036504725   -3.2572238      0             -3.2207547     -0.048237759  
    176000   0.035375706   -3.255347       0             -3.2200058     -0.028520523  
    178000   0.036806754   -3.2565912      0             -3.2198204     -0.020669525  
    180000   0.035151839   -3.2568069      0             -3.2216894     -0.015283854  
    182000   0.034792648   -3.2542208      0             -3.2194621     -0.037413284  
    184000   0.037545571   -3.2546705      0             -3.2171616      0.024532611  
    186000   0.038543107   -3.253175       0             -3.2146696     -0.044425725  
    188000   0.035162249   -3.2587899      0             -3.223662      -0.089217633  
    190000   0.036139894   -3.2553607      0             -3.2192561     -0.038347411  
    192000   0.037214144   -3.2571125      0             -3.2199347      0.00026449899
    194000   0.035685118   -3.2553654      0             -3.2197152     -0.072908918  
    196000   0.037062666   -3.2556757      0             -3.2186493     -0.034645708  
    198000   0.038361527   -3.255405       0             -3.2170809      0.021077556  
    200000   0.034472051   -3.2563755      0             -3.2219371     -0.082353384  
Loop time of 13.4516 on 4 procs for 200000 steps with 1024 atoms

Performance: 3211506.716 tau/day, 14868.087 timesteps/s, 15.225 Matom-step/s
100.0% CPU use with 4 MPI tasks x no OpenMP threads

MPI task timing breakdown:
Section |  min time  |  avg time  |  max time  |%varavg| %total
---------------------------------------------------------------
Pair    | 4.2545     | 4.8561     | 5.57       |  22.1 | 36.10
Neigh   | 0.34814    | 0.41324    | 0.50404    |   8.9 |  3.07
Comm    | 3.4472     | 4.2921     | 4.9752     |  27.6 | 31.91
Output  | 0.002438   | 0.0026151  | 0.002791   |   0.3 |  0.02
Modify  | 1.1215     | 1.1706     | 1.2073     |   3.1 |  8.70
Other   |            | 2.717      |            |       | 20.20

Nlocal:            256 ave         304 max         217 min
Histogram: 1 1 0 0 0 0 1 0 0 1
Nghost:         142.25 ave         162 max         113 min
Histogram: 1 0 0 0 0 0 2 0 0 1
Neighs:        3295.75 ave        3829 max        2742 min
Histogram: 1 0 0 0 1 0 1 0 0 1

Total # of neighbors = 13183
Ave neighs/atom = 12.874023
Neighbor list builds = 10000
Dangerous builds not checked
Total wall time: 0:00:13
