2D Lennard-Jones system

1024 atoms
1 atom types

0.0 37.712361663282536 xlo xhi
0.0 37.712361663282536 ylo yhi
-0.5 0.5 zlo zhi

Masses

1 1.0

Atoms

1 1 0.0 0.0 0.0
2 1 0.0 1.1785113019775793 0.0
3 1 0.0 2.3570226039551585 0.0
4 1 0.0 3.5355339059327378 0.0
5 1 0.0 4.714045207910317 0.0
6 1 0.0 5.892556509887896 0.0
7 1 0.0 7.0710678118654755 0.0
8 1 0.0 8.249579113843055 0.0
9 1 0.0 9.428090415820634 0.0
10 1 0.0 10.606601717798213 0.0
11 1 0.0 11.785113019775793 0.0
12 1 0.0 12.963624321753372 0.0
13 1 0.0 14.142135623730951 0.0
14 1 0.0 15.32064692570853 0.0
15 1 0.0 16.49915822768611 0.0
16 1 0.0 17.67766952966369 0.0
17 1 0.0 18.856180831641268 0.0
18 1 0.0 20.034692133618847 0.0
19 1 0.0 21.213203435596427 0.0
20 1 0.0 22.391714737574006 0.0
21 1 0.0 23.570226039551585 0.0
22 1 0.0 24.748737341529164 0.0
23 1 0.0 25.927248643506744 0.0
24 1 0.0 27.105759945484323 0.0
25 1 0.0 28.284271247461902 0.0
26 1 0.0 29.46278254943948 0.0
27 1 0.0 30.64129385141706 0.0
28 1 0.0 31.81980515339464 0.0
29 1 0.0 32.99831645537222 0.0
30 1 0.0 34.1768277573498 0.0
31 1 0.0 35.35533905932738 0.0
32 1 0.0 36.53385036130496 0.0
33 1 1.1785113019775793 0.0 0.0
34 1 1.1785113019775793 1.1785113019775793 0.0
35 1 1.1785113019775793 2.3570226039551585 0.0
36 1 1.1785113019775793 3.5355339059327378 0.0
37 1 1.1785113019775793 4.714045207910317 0.0
38 1 1.1785113019775793 5.892556509887896 0.0
39 1 1.1785113019775793 7.0710678118654755 0.0
40 1 1.1785113019775793 8.249579113843055 0.0
41 1 1.1785113019775793 9.428090415820634 0.0
42 1 1.1785113019775793 10.606601717798213 0.0
43 1 1.1785113019775793 11.785113019775793 0.0
44 1 1.1785113019775793 12.963624321753372 0.0
45 1 1.1785113019775793 14.142135623730951 0.0
46 1 1.1785113019775793 15.32064692570853 0.0
47 1 1.1785113019775793 16.49915822768611 0.0
48 1 1.1785113019775793 17.67766952966369 0.0
49 1 1.1785113019775793 18.856180831641268 0.0
50 1 1.1785113019775793 20.034692133618847 0.0
51 1 1.1785113019775793 21.213203435596427 0.0
52 1 1.1785113019775793 22.391714737574006 0.0
53 1 1.1785113019775793 23.570226039551585 0.0
54 1 1.1785113019775793 24.748737341529164 0.0
55 1 1.1785113019775793 25.927248643506744 0.0
56 1 1.1785113019775793 27.105759945484323 0.0
57 1 1.1785113019775793 28.284271247461902 0.0
58 1 1.1785113019775793 29.46278254943948 0.0
59 1 1.1785113019775793 30.64129385141706 0.0
60 1 1.1785113019775793 31.81980515339464 0.0
61 1 1.1785113019775793 32.99831645537222 0.0
62 1 1.1785113019775793 34.1768277573498 0.0
63 1 1.1785113019775793 35.35533905932738 0.0
64 1 1.1785113019775793 36.53385036130496 0.0
65 1 2.3570226039551585 0.0 0.0
66 1 2.3570226039551585 1.1785113019775793 0.0
67 1 2.3570226039551585 2.3570226039551585 0.0
68 1 2.3570226039551585 3.5355339059327378 0.0
69 1 2.3570226039551585 4.714045207910317 0.0
70 1 2.3570226039551585 5.892556509887896 0.0
71 1 2.3570226039551585 7.0710678118654755 0.0
72 1 2.3570226039551585 8.249579113843055 0.0
73 1 2.3570226039551585 9.428090415820634 0.0
74 1 2.3570226039551585 10.606601717798213 0.0
75 1 2.3570226039551585 11.785113019775793 0.0
76 1 2.3570226039551585 12.963624321753372 0.0
77 1 2.3570226039551585 14.142135623730951 0.0
78 1 2.3570226039551585 15.32064692570853 0.0
79 1 2.3570226039551585 16.49915822768611 0.0
80 1 2.3570226039551585 17.67766952966369 0.0
81 1 2.3570226039551585 18.856180831641268 0.0
82 1 2.3570226039551585 20.034692133618847 0.0
83 1 2.3570226039551585 21.213203435596427 0.0
84 1 2.3570226039551585 22.391714737574006 0.0
85 1 2.3570226039551585 23.570226039551585 0.0
86 1 2.3570226039551585 24.748737341529164 0.0
87 1 2.3570226039551585 25.927248643506744 0.0
88 1 2.3570226039551585 27.105759945484323 0.0
89 1 2.3570226039551585 28.284271247461902 0.0
90 1 2.3570226039551585 29.46278254943948 0.0
91 1 2.3570226039551585 30.64129385141706 0.0
92 1 2.3570226039551585 31.81980515339464 0.0
93 1 2.3570226039551585 32.99831645537222 0.0
94 1 2.3570226039551585 34.1768277573498 0.0
95 1 2.3570226039551585 35.35533905932738 0.0
96 1 2.3570226039551585 36.53385036130496 0.0
97 1 3.5355339059327378 0.0 0.0
98 1 3.5355339059327378 1.1785113019775793 0.0
99 1 3.5355339059327378 2.3570226039551585 0.0
100 1 3.5355339059327378 3.5355339059327378 0.0
101 1 3.5355339059327378 4.714045207910317 0.0
102 1 3.5355339059327378 5.892556509887896 0.0
103 1 3.5355339059327378 7.0710678118654755 0.0
104 1 3.5355339059327378 8.249579113843055 0.0
105 1 3.5355339059327378 9.428090415820634 0.0
106 1 3.5355339059327378 10.606601717798213 0.0
107 1 3.5355339059327378 11.785113019775793 0.0
108 1 3.5355339059327378 12.963624321753372 0.0
109 1 3.5355339059327378 14.142135623730951 0.0
110 1 3.5355339059327378 15.32064692570853 0.0
111 1 3.5355339059327378 16.49915822768611 0.0
112 1 3.5355339059327378 17.67766952966369 0.0
113 1 3.5355339059327378 18.856180831641268 0.0
114 1 3.5355339059327378 20.034692133618847 0.0
115 1 3.5355339059327378 21.213203435596427 0.0
116 1 3.5355339059327378 22.391714737574006 0.0
117 1 3.5355339059327378 23.570226039551585 0.0
118 1 3.5355339059327378 24.748737341529164 0.0
119 1 3.5355339059327378 25.927248643506744 0.0
120 1 3.5355339059327378 27.105759945484323 0.0
121 1 3.5355339059327378 28.284271247461902 0.0
122 1 3.5355339059327378 29.46278254943948 0.0
123 1 3.5355339059327378 30.64129385141706 0.0
124 1 3.5355339059327378 31.81980515339464 0.0
125 1 3.5355339059327378 32.99831645537222 0.0
126 1 3.5355339059327378 34.1768277573498 0.0
127 1 3.5355339059327378 35.35533905932738 0.0
128 1 3.5355339059327378 36.53385036130496 0.0
129 1 4.714045207910317 0.0 0.0
130 1 4.714045207910317 1.1785113019775793 0.0
131 1 4.714045207910317 2.3570226039551585 0.0
132 1 4.714045207910317 3.5355339059327378 0.0
133 1 4.714045207910317 4.714045207910317 0.0
134 1 4.714045207910317 5.892556509887896 0.0
135 1 4.714045207910317 7.0710678118654755 0.0
136 1 4.714045207910317 8.249579113843055 0.0
137 1 4.714045207910317 9.428090415820634 0.0
138 1 4.714045207910317 10.606601717798213 0.0
139 1 4.714045207910317 11.785113019775793 0.0
140 1 4.714045207910317 12.963624321753372 0.0
141 1 4.714045207910317 14.142135623730951 0.0
142 1 4.714045207910317 15.32064692570853 0.0
143 1 4.714045207910317 16.49915822768611 0.0
144 1 4.714045207910317 17.67766952966369 0.0
145 1 4.714045207910317 18.856180831641268 0.0
146 1 4.714045207910317 20.034692133618847 0.0
147 1 4.714045207910317 21.213203435596427 0.0
148 1 4.714045207910317 22.391714737574006 0.0
149 1 4.714045207910317 23.570226039551585 0.0
150 1 4.714045207910317 24.748737341529164 0.0
151 1 4.714045207910317 25.927248643506744 0.0
152 1 4.714045207910317 27.105759945484323 0.0
153 1 4.714045207910317 28.284271247461902 0.0
154 1 4.714045207910317 29.46278254943948 0.0
155 1 4.714045207910317 30.64129385141706 0.0
156 1 4.714045207910317 31.81980515339464 0.0
157 1 4.714045207910317 32.99831645537222 0.0
158 1 4.714045207910317 34.1768277573498 0.0
159 1 4.714045207910317 35.35533905932738 0.0
160 1 4.714045207910317 36.53385036130496 0.0
161 1 5.892556509887896 0.0 0.0
162 1 5.892556509887896 1.1785113019775793 0.0
163 1 5.892556509887896 2.3570226039551585 0.0
164 1 5.892556509887896 3.5355339059327378 0.0
165 1 5.892556509887896 4.714045207910317 0.0
166 1 5.892556509887896 5.892556509887896 0.0
167 1 5.892556509887896 7.0710678118654755 0.0
168 1 5.892556509887896 8.249579113843055 0.0
169 1 5.892556509887896 9.428090415820634 0.0
170 1 5.892556509887896 10.606601717798213 0.0
171 1 5.892556509887896 11.785113019775793 0.0
172 1 5.892556509887896 12.963624321753372 0.0
173 1 5.892556509887896 14.142135623730951 0.0
174 1 5.892556509887896 15.32064692570853 0.0
175 1 5.892556509887896 16.49915822768611 0.0
176 1 5.892556509887896 17.67766952966369 0.0
177 1 5.892556509887896 18.856180831641268 0.0
178 1 5.892556509887896 20.034692133618847 0.0
179 1 5.892556509887896 21.213203435596427 0.0
180 1 5.892556509887896 22.391714737574006 0.0
181 1 5.892556509887896 23.570226039551585 0.0
182 1 5.892556509887896 24.748737341529164 0.0
183 1 5.892556509887896 25.927248643506744 0.0
184 1 5.892556509887896 27.105759945484323 0.0
185 1 5.892556509887896 28.284271247461902 0.0
186 1 5.892556509887896 29.46278254943948 0.0
187 1 5.892556509887896 30.64129385141706 0.0
188 1 5.892556509887896 31.81980515339464 0.0
189 1 5.892556509887896 32.99831645537222 0.0
190 1 5.892556509887896 34.1768277573498 0.0
191 1 5.892556509887896 35.35533905932738 0.0
192 1 5.892556509887896 36.53385036130496 0.0
193 1 7.0710678118654755 0.0 0.0
194 1 7.0710678118654755 1.1785113019775793 0.0
195 1 7.0710678118654755 2.3570226039551585 0.0
196 1 7.0710678118654755 3.5355339059327378 0.0
197 1 7.0710678118654755 4.714045207910317 0.0
198 1 7.0710678118654755 5.892556509887896 0.0
199 1 7.0710678118654755 7.0710678118654755 0.0
200 1 7.0710678118654755 8.249579113843055 0.0
201 1 7.0710678118654755 9.428090415820634 0.0
202 1 7.0710678118654755 10.606601717798213 0.0
203 1 7.0710678118654755 11.785113019775793 0.0
204 1 7.0710678118654755 12.963624321753372 0.0
205 1 7.0710678118654755 14.142135623730951 0.0
206 1 7.0710678118654755 15.32064692570853 0.0
207 1 7.0710678118654755 16.49915822768611 0.0
208 1 7.0710678118654755 17.67766952966369 0.0
209 1 7.0710678118654755 18.856180831641268 0.0
210 1 7.0710678118654755 20.034692133618847 0.0
211 1 7.0710678118654755 21.213203435596427 0.0
212 1 7.0710678118654755 22.391714737574006 0.0
213 1 7.0710678118654755 23.570226039551585 0.0
214 1 7.0710678118654755 24.748737341529164 0.0
215 1 7.0710678118654755 25.927248643506744 0.0
216 1 7.0710678118654755 27.105759945484323 0.0
217 1 7.0710678118654755 28.284271247461902 0.0
218 1 7.0710678118654755 29.46278254943948 0.0
219 1 7.0710678118654755 30.64129385141706 0.0
220 1 7.0710678118654755 31.81980515339464 0.0
221 1 7.0710678118654755 32.99831645537222 0.0
222 1 7.0710678118654755 34.1768277573498 0.0
223 1 7.0710678118654755 35.35533905932738 0.0
224 1 7.0710678118654755 36.53385036130496 0.0
225 1 8.249579113843055 0.0 0.0
226 1 8.249579113843055 1.1785113019775793 0.0
227 1 8.249579113843055 2.3570226039551585 0.0
228 1 8.249579113843055 3.5355339059327378 0.0
229 1 8.249579113843055 4.714045207910317 0.0
230 1 8.249579113843055 5.892556509887896 0.0
231 1 8.249579113843055 7.0710678118654755 0.0
232 1 8.249579113843055 8.249579113843055 0.0
233 1 8.249579113843055 9.428090415820634 0.0
234 1 8.249579113843055 10.606601717798213 0.0
235 1 8.249579113843055 11.785113019775793 0.0
236 1 8.249579113843055 12.963624321753372 0.0
237 1 8.249579113843055 14.142135623730951 0.0
238 1 8.249579113843055 15.32064692570853 0.0
239 1 8.249579113843055 16.49915822768611 0.0
240 1 8.249579113843055 17.67766952966369 0.0
241 1 8.249579113843055 18.856180831641268 0.0
242 1 8.249579113843055 20.034692133618847 0.0
243 1 8.249579113843055 21.213203435596427 0.0
244 1 8.249579113843055 22.391714737574006 0.0
245 1 8.249579113843055 23.570226039551585 0.0
246 1 8.249579113843055 24.748737341529164 0.0
247 1 8.249579113843055 25.927248643506744 0.0
248 1 8.249579113843055 27.105759945484323 0.0
249 1 8.249579113843055 28.284271247461902 0.0
250 1 8.249579113843055 29.46278254943948 0.0
251 1 8.249579113843055 30.64129385141706 0.0
252 1 8.249579113843055 31.81980515339464 0.0
253 1 8.249579113843055 32.99831645537222 0.0
254 1 8.249579113843055 34.1768277573498 0.0
255 1 8.249579113843055 35.35533905932738 0.0
256 1 8.249579113843055 36.53385036130496 0.0
257 1 9.428090415820634 0.0 0.0
258 1 9.428090415820634 1.1785113019775793 0.0
259 1 9.428090415820634 2.3570226039551585 0.0
260 1 9.428090415820634 3.5355339059327378 0.0
261 1 9.428090415820634 4.714045207910317 0.0
262 1 9.428090415820634 5.892556509887896 0.0
263 1 9.428090415820634 7.0710678118654755 0.0
264 1 9.428090415820634 8.249579113843055 0.0
265 1 9.428090415820634 9.428090415820634 0.0
266 1 9.428090415820634 10.606601717798213 0.0
267 1 9.428090415820634 11.785113019775793 0.0
268 1 9.428090415820634 12.963624321753372 0.0
269 1 9.428090415820634 14.142135623730951 0.0
270 1 9.428090415820634 15.32064692570853 0.0
271 1 9.428090415820634 16.49915822768611 0.0
272 1 9.428090415820634 17.67766952966369 0.0
273 1 9.428090415820634 18.856180831641268 0.0
274 1 9.428090415820634 20.034692133618847 0.0
275 1 9.428090415820634 21.213203435596427 0.0
276 1 9.428090415820634 22.391714737574006 0.0
277 1 9.428090415820634 23.570226039551585 0.0
278 1 9.428090415820634 24.748737341529164 0.0
279 1 9.428090415820634 25.927248643506744 0.0
280 1 9.428090415820634 27.105759945484323 0.0
281 1 9.428090415820634 28.284271247461902 0.0
282 1 9.428090415820634 29.46278254943948 0.0
283 1 9.428090415820634 30.64129385141706 0.0
284 1 9.428090415820634 31.81980515339464 0.0
285 1 9.428090415820634 32.99831645537222 0.0
286 1 9.428090415820634 34.1768277573498 0.0
287 1 9.428090415820634 35.35533905932738 0.0
288 1 9.428090415820634 36.53385036130496 0.0
289 1 10.606601717798213 0.0 0.0
290 1 10.606601717798213 1.1785113019775793 0.0
291 1 10.606601717798213 2.3570226039551585 0.0
292 1 10.606601717798213 3.5355339059327378 0.0
293 1 10.606601717798213 4.714045207910317 0.0
294 1 10.606601717798213 5.892556509887896 0.0
295 1 10.606601717798213 7.0710678118654755 0.0
296 1 10.606601717798213 8.249579113843055 0.0
297 1 10.606601717798213 9.428090415820634 0.0
298 1 10.606601717798213 10.606601717798213 0.0
299 1 10.606601717798213 11.785113019775793 0.0
300 1 10.606601717798213 12.963624321753372 0.0
301 1 10.606601717798213 14.142135623730951 0.0
302 1 10.606601717798213 15.32064692570853 0.0
303 1 10.606601717798213 16.49915822768611 0.0
304 1 10.606601717798213 17.67766952966369 0.0
305 1 10.606601717798213 18.856180831641268 0.0
306 1 10.606601717798213 20.034692133618847 0.0
307 1 10.606601717798213 21.213203435596427 0.0
308 1 10.606601717798213 22.391714737574006 0.0
309 1 10.606601717798213 23.570226039551585 0.0
310 1 10.606601717798213 24.748737341529164 0.0
311 1 10.606601717798213 25.927248643506744 0.0
312 1 10.606601717798213 27.105759945484323 0.0
313 1 10.606601717798213 28.284271247461902 0.0
314 1 10.606601717798213 29.46278254943948 0.0
315 1 10.606601717798213 30.64129385141706 0.0
316 1 10.606601717798213 31.81980515339464 0.0
317 1 10.606601717798213 32.99831645537222 0.0
318 1 10.606601717798213 34.1768277573498 0.0
319 1 10.606601717798213 35.35533905932738 0.0
320 1 10.606601717798213 36.53385036130496 0.0
321 1 11.785113019775793 0.0 0.0
322 1 11.785113019775793 1.1785113019775793 0.0
323 1 11.785113019775793 2.3570226039551585 0.0
324 1 11.785113019775793 3.5355339059327378 0.0
325 1 11.785113019775793 4.714045207910317 0.0
326 1 11.785113019775793 5.892556509887896 0.0
327 1 11.785113019775793 7.0710678118654755 0.0
328 1 11.785113019775793 8.249579113843055 0.0
329 1 11.785113019775793 9.428090415820634 0.0
330 1 11.785113019775793 10.606601717798213 0.0
331 1 11.785113019775793 11.785113019775793 0.0
332 1 11.785113019775793 12.963624321753372 0.0
333 1 11.785113019775793 14.142135623730951 0.0
334 1 11.785113019775793 15.32064692570853 0.0
335 1 11.785113019775793 16.49915822768611 0.0
336 1 11.785113019775793 17.67766952966369 0.0
337 1 11.785113019775793 18.856180831641268 0.0
338 1 11.785113019775793 20.034692133618847 0.0
339 1 11.785113019775793 21.213203435596427 0.0
340 1 11.785113019775793 22.391714737574006 0.0
341 1 11.785113019775793 23.570226039551585 0.0
342 1 11.785113019775793 24.748737341529164 0.0
343 1 11.785113019775793 25.927248643506744 0.0
344 1 11.785113019775793 27.105759945484323 0.0
345 1 11.785113019775793 28.284271247461902 0.0
346 1 11.785113019775793 29.46278254943948 0.0
347 1 11.785113019775793 30.64129385141706 0.0
348 1 11.785113019775793 31.81980515339464 0.0
349 1 11.785113019775793 32.99831645537222 0.0
350 1 11.785113019775793 34.1768277573498 0.0
351 1 11.785113019775793 35.35533905932738 0.0
352 1 11.785113019775793 36.53385036130496 0.0
353 1 12.963624321753372 0.0 0.0
354 1 12.963624321753372 1.1785113019775793 0.0
355 1 12.963624321753372 2.3570226039551585 0.0
356 1 12.963624321753372 3.5355339059327378 0.0
357 1 12.963624321753372 4.714045207910317 0.0
358 1 12.963624321753372 5.892556509887896 0.0
359 1 12.963624321753372 7.0710678118654755 0.0
360 1 12.963624321753372 8.249579113843055 0.0
361 1 12.963624321753372 9.428090415820634 0.0
362 1 12.963624321753372 10.606601717798213 0.0
363 1 12.963624321753372 11.785113019775793 0.0
364 1 12.963624321753372 12.963624321753372 0.0
365 1 12.963624321753372 14.142135623730951 0.0
366 1 12.963624321753372 15.32064692570853 0.0
367 1 12.963624321753372 16.49915822768611 0.0
368 1 12.963624321753372 17.67766952966369 0.0
369 1 12.963624321753372 18.856180831641268 0.0
370 1 12.963624321753372 20.034692133618847 0.0
371 1 12.963624321753372 21.213203435596427 0.0
372 1 12.963624321753372 22.391714737574006 0.0
373 1 12.963624321753372 23.570226039551585 0.0
374 1 12.963624321753372 24.748737341529164 0.0
375 1 12.963624321753372 25.927248643506744 0.0
376 1 12.963624321753372 27.105759945484323 0.0
377 1 12.963624321753372 28.284271247461902 0.0
378 1 12.963624321753372 29.46278254943948 0.0
379 1 12.963624321753372 30.64129385141706 0.0
380 1 12.963624321753372 31.81980515339464 0.0
381 1 12.963624321753372 32.99831645537222 0.0
382 1 12.963624321753372 34.1768277573498 0.0
383 1 12.963624321753372 35.35533905932738 0.0
384 1 12.963624321753372 36.53385036130496 0.0
385 1 14.142135623730951 0.0 0.0
386 1 14.142135623730951 1.1785113019775793 0.0
387 1 14.142135623730951 2.3570226039551585 0.0
388 1 14.142135623730951 3.5355339059327378 0.0
389 1 14.142135623730951 4.714045207910317 0.0
390 1 14.142135623730951 5.892556509887896 0.0
391 1 14.142135623730951 7.0710678118654755 0.0
392 1 14.142135623730951 8.249579113843055 0.0
393 1 14.142135623730951 9.428090415820634 0.0
394 1 14.142135623730951 10.606601717798213 0.0
395 1 14.142135623730951 11.785113019775793 0.0
396 1 14.142135623730951 12.963624321753372 0.0
397 1 14.142135623730951 14.142135623730951 0.0
398 1 14.142135623730951 15.32064692570853 0.0
399 1 14.142135623730951 16.49915822768611 0.0
400 1 14.142135623730951 17.67766952966369 0.0
401 1 14.142135623730951 18.856180831641268 0.0
402 1 14.142135623730951 20.034692133618847 0.0
403 1 14.142135623730951 21.213203435596427 0.0
404 1 14.142135623730951 22.391714737574006 0.0
405 1 14.142135623730951 23.570226039551585 0.0
406 1 14.142135623730951 24.748737341529164 0.0
407 1 14.142135623730951 25.927248643506744 0.0
408 1 14.142135623730951 27.105759945484323 0.0
409 1 14.142135623730951 28.284271247461902 0.0
410 1 14.142135623730951 29.46278254943948 0.0
411 1 14.142135623730951 30.64129385141706 0.0
412 1 14.142135623730951 31.81980515339464 0.0
413 1 14.142135623730951 32.99831645537222 0.0
414 1 14.142135623730951 34.1768277573498 0.0
415 1 14.142135623730951 35.35533905932738 0.0
416 1 14.142135623730951 36.53385036130496 0.0
417 1 15.32064692570853 0.0 0.0
418 1 15.32064692570853 1.1785113019775793 0.0
419 1 15.32064692570853 2.3570226039551585 0.0
420 1 15.32064692570853 3.5355339059327378 0.0
421 1 15.32064692570853 4.714045207910317 0.0
422 1 15.32064692570853 5.892556509887896 0.0
423 1 15.32064692570853 7.0710678118654755 0.0
424 1 15.32064692570853 8.249579113843055 0.0
425 1 15.32064692570853 9.428090415820634 0.0
426 1 15.32064692570853 10.606601717798213 0.0
427 1 15.32064692570853 11.785113019775793 0.0
428 1 15.32064692570853 12.963624321753372 0.0
429 1 15.32064692570853 14.142135623730951 0.0
430 1 15.32064692570853 15.32064692570853 0.0
431 1 15.32064692570853 16.49915822768611 0.0
432 1 15.32064692570853 17.67766952966369 0.0
433 1 15.32064692570853 18.856180831641268 0.0
434 1 15.32064692570853 20.034692133618847 0.0
435 1 15.32064692570853 21.213203435596427 0.0
436 1 15.32064692570853 22.391714737574006 0.0
437 1 15.32064692570853 23.570226039551585 0.0
438 1 15.32064692570853 24.748737341529164 0.0
439 1 15.32064692570853 25.927248643506744 0.0
440 1 15.32064692570853 27.105759945484323 0.0
441 1 15.32064692570853 28.284271247461902 0.0
442 1 15.32064692570853 29.46278254943948 0.0
443 1 15.32064692570853 30.64129385141706 0.0
444 1 15.32064692570853 31.81980515339464 0.0
445 1 15.32064692570853 32.99831645537222 0.0
446 1 15.32064692570853 34.1768277573498 0.0
447 1 15.32064692570853 35.35533905932738 0.0
448 1 15.32064692570853 36.53385036130496 0.0
449 1 16.49915822768611 0.0 0.0
450 1 16.49915822768611 1.1785113019775793 0.0
451 1 16.49915822768611 2.3570226039551585 0.0
452 1 16.49915822768611 3.5355339059327378 0.0
453 1 16.49915822768611 4.714045207910317 0.0
454 1 16.49915822768611 5.892556509887896 0.0
455 1 16.49915822768611 7.0710678118654755 0.0
456 1 16.49915822768611 8.249579113843055 0.0
457 1 16.49915822768611 9.428090415820634 0.0
458 1 16.49915822768611 10.606601717798213 0.0
459 1 16.49915822768611 11.785113019775793 0.0
460 1 16.49915822768611 12.963624321753372 0.0
461 1 16.49915822768611 14.142135623730951 0.0
462 1 16.49915822768611 15.32064692570853 0.0
463 1 16.49915822768611 16.49915822768611 0.0
464 1 16.49915822768611 17.67766952966369 0.0
465 1 16.49915822768611 18.856180831641268 0.0
466 1 16.49915822768611 20.034692133618847 0.0
467 1 16.49915822768611 21.213203435596427 0.0
468 1 16.49915822768611 22.391714737574006 0.0
469 1 16.49915822768611 23.570226039551585 0.0
470 1 16.49915822768611 24.748737341529164 0.0
471 1 16.49915822768611 25.927248643506744 0.0
472 1 16.49915822768611 27.105759945484323 0.0
473 1 16.49915822768611 28.284271247461902 0.0
474 1 16.49915822768611 29.46278254943948 0.0
475 1 16.49915822768611 30.64129385141706 0.0
476 1 16.49915822768611 31.81980515339464 0.0
477 1 16.49915822768611 32.99831645537222 0.0
478 1 16.49915822768611 34.1768277573498 0.0
479 1 16.49915822768611 35.35533905932738 0.0
480 1 16.49915822768611 36.53385036130496 0.0
481 1 17.67766952966369 0.0 0.0
482 1 17.67766952966369 1.1785113019775793 0.0
483 1 17.67766952966369 2.3570226039551585 0.0
484 1 17.67766952966369 3.5355339059327378 0.0
485 1 17.67766952966369 4.714045207910317 0.0
486 1 17.67766952966369 5.892556509887896 0.0
487 1 17.67766952966369 7.0710678118654755 0.0
488 1 17.67766952966369 8.249579113843055 0.0
489 1 17.67766952966369 9.428090415820634 0.0
490 1 17.67766952966369 10.606601717798213 0.0
491 1 17.67766952966369 11.785113019775793 0.0
492 1 17.67766952966369 12.963624321753372 0.0
493 1 17.67766952966369 14.142135623730951 0.0
494 1 17.67766952966369 15.32064692570853 0.0
495 1 17.67766952966369 16.49915822768611 0.0
496 1 17.67766952966369 17.67766952966369 0.0
497 1 17.67766952966369 18.856180831641268 0.0
498 1 17.67766952966369 20.034692133618847 0.0
499 1 17.67766952966369 21.213203435596427 0.0
500 1 17.67766952966369 22.391714737574006 0.0
501 1 17.67766952966369 23.570226039551585 0.0
502 1 17.67766952966369 24.748737341529164 0.0
503 1 17.67766952966369 25.927248643506744 0.0
504 1 17.67766952966369 27.105759945484323 0.0
505 1 17.67766952966369 28.284271247461902 0.0
506 1 17.67766952966369 29.46278254943948 0.0
507 1 17.67766952966369 30.64129385141706 0.0
508 1 17.67766952966369 31.81980515339464 0.0
509 1 17.67766952966369 32.99831645537222 0.0
510 1 17.67766952966369 34.1768277573498 0.0
511 1 17.67766952966369 35.35533905932738 0.0
512 1 17.67766952966369 36.53385036130496 0.0
513 1 18.856180831641268 0.0 0.0
514 1 18.856180831641268 1.1785113019775793 0.0
515 1 18.856180831641268 2.3570226039551585 0.0
516 1 18.856180831641268 3.5355339059327378 0.0
517 1 18.856180831641268 4.714045207910317 0.0
518 1 18.856180831641268 5.892556509887896 0.0
519 1 18.856180831641268 7.0710678118654755 0.0
520 1 18.856180831641268 8.249579113843055 0.0
521 1 18.856180831641268 9.428090415820634 0.0
522 1 18.856180831641268 10.606601717798213 0.0
523 1 18.856180831641268 11.785113019775793 0.0
524 1 18.856180831641268 12.963624321753372 0.0
525 1 18.856180831641268 14.142135623730951 0.0
526 1 18.856180831641268 15.32064692570853 0.0
527 1 18.856180831641268 16.49915822768611 0.0
528 1 18.856180831641268 17.67766952966369 0.0
529 1 18.856180831641268 18.856180831641268 0.0
530 1 18.856180831641268 20.034692133618847 0.0
531 1 18.856180831641268 21.213203435596427 0.0
532 1 18.856180831641268 22.391714737574006 0.0
533 1 18.856180831641268 23.570226039551585 0.0
534 1 18.856180831641268 24.748737341529164 0.0
535 1 18.856180831641268 25.927248643506744 0.0
536 1 18.856180831641268 27.105759945484323 0.0
537 1 18.856180831641268 28.284271247461902 0.0
538 1 18.856180831641268 29.46278254943948 0.0
539 1 18.856180831641268 30.64129385141706 0.0
540 1 18.856180831641268 31.81980515339464 0.0
541 1 18.856180831641268 32.99831645537222 0.0
542 1 18.856180831641268 34.1768277573498 0.0
543 1 18.856180831641268 35.35533905932738 0.0
544 1 18.856180831641268 36.53385036130496 0.0
545 1 20.034692133618847 0.0 0.0
546 1 20.034692133618847 1.1785113019775793 0.0
547 1 20.034692133618847 2.3570226039551585 0.0
548 1 20.034692133618847 3.5355339059327378 0.0
549 1 20.034692133618847 4.714045207910317 0.0
550 1 20.034692133618847 5.892556509887896 0.0
551 1 20.034692133618847 7.0710678118654755 0.0
552 1 20.034692133618847 8.249579113843055 0.0
553 1 20.034692133618847 9.428090415820634 0.0
554 1 20.034692133618847 10.606601717798213 0.0
555 1 20.034692133618847 11.785113019775793 0.0
556 1 20.034692133618847 12.963624321753372 0.0
557 1 20.034692133618847 14.142135623730951 0.0
558 1 20.034692133618847 15.32064692570853 0.0
559 1 20.034692133618847 16.49915822768611 0.0
560 1 20.034692133618847 17.67766952966369 0.0
561 1 20.034692133618847 18.856180831641268 0.0
562 1 20.034692133618847 20.034692133618847 0.0
563 1 20.034692133618847 21.213203435596427 0.0
564 1 20.034692133618847 22.391714737574006 0.0
565 1 20.034692133618847 23.570226039551585 0.0
566 1 20.034692133618847 24.748737341529164 0.0
567 1 20.034692133618847 25.927248643506744 0.0
568 1 20.034692133618847 27.105759945484323 0.0
569 1 20.034692133618847 28.284271247461902 0.0
570 1 20.034692133618847 29.46278254943948 0.0
571 1 20.034692133618847 30.64129385141706 0.0
572 1 20.034692133618847 31.81980515339464 0.0
573 1 20.034692133618847 32.99831645537222 0.0
574 1 20.034692133618847 34.1768277573498 0.0
575 1 20.034692133618847 35.35533905932738 0.0
576 1 20.034692133618847 36.53385036130496 0.0
577 1 21.213203435596427 0.0 0.0
578 1 21.213203435596427 1.1785113019775793 0.0
579 1 21.213203435596427 2.3570226039551585 0.0
580 1 21.213203435596427 3.5355339059327378 0.0
581 1 21.213203435596427 4.714045207910317 0.0
582 1 21.213203435596427 5.892556509887896 0.0
583 1 21.213203435596427 7.0710678118654755 0.0
584 1 21.213203435596427 8.249579113843055 0.0
585 1 21.213203435596427 9.428090415820634 0.0
586 1 21.213203435596427 10.606601717798213 0.0
587 1 21.213203435596427 11.785113019775793 0.0
588 1 21.213203435596427 12.963624321753372 0.0
589 1 21.213203435596427 14.142135623730951 0.0
590 1 21.213203435596427 15.32064692570853 0.0
591 1 21.213203435596427 16.49915822768611 0.0
592 1 21.213203435596427 17.67766952966369 0.0
593 1 21.213203435596427 18.856180831641268 0.0
594 1 21.213203435596427 20.034692133618847 0.0
595 1 21.213203435596427 21.213203435596427 0.0
596 1 21.213203435596427 22.391714737574006 0.0
597 1 21.213203435596427 23.570226039551585 0.0
598 1 21.213203435596427 24.748737341529164 0.0
599 1 21.213203435596427 25.927248643506744 0.0
600 1 21.213203435596427 27.105759945484323 0.0
601 1 21.213203435596427 28.284271247461902 0.0
602 1 21.213203435596427 29.46278254943948 0.0
603 1 21.213203435596427 30.64129385141706 0.0
604 1 21.213203435596427 31.81980515339464 0.0
605 1 21.213203435596427 32.99831645537222 0.0
606 1 21.213203435596427 34.1768277573498 0.0
607 1 21.213203435596427 35.35533905932738 0.0
608 1 21.213203435596427 36.53385036130496 0.0
609 1 22.391714737574006 0.0 0.0
610 1 22.391714737574006 1.1785113019775793 0.0
611 1 22.391714737574006 2.3570226039551585 0.0
612 1 22.391714737574006 3.5355339059327378 0.0
613 1 22.391714737574006 4.714045207910317 0.0
614 1 22.391714737574006 5.892556509887896 0.0
615 1 22.391714737574006 7.0710678118654755 0.0
616 1 22.391714737574006 8.249579113843055 0.0
617 1 22.391714737574006 9.428090415820634 0.0
618 1 22.391714737574006 10.606601717798213 0.0
619 1 22.391714737574006 11.785113019775793 0.0
620 1 22.391714737574006 12.963624321753372 0.0
621 1 22.391714737574006 14.142135623730951 0.0
622 1 22.391714737574006 15.32064692570853 0.0
623 1 22.391714737574006 16.49915822768611 0.0
624 1 22.391714737574006 17.67766952966369 0.0
625 1 22.391714737574006 18.856180831641268 0.0
626 1 22.391714737574006 20.034692133618847 0.0
627 1 22.391714737574006 21.213203435596427 0.0
628 1 22.391714737574006 22.391714737574006 0.0
629 1 22.391714737574006 23.570226039551585 0.0
630 1 22.391714737574006 24.748737341529164 0.0
631 1 22.391714737574006 25.927248643506744 0.0
632 1 22.391714737574006 27.105759945484323 0.0
633 1 22.391714737574006 28.284271247461902 0.0
634 1 22.391714737574006 29.46278254943948 0.0
635 1 22.391714737574006 30.64129385141706 0.0
636 1 22.391714737574006 31.81980515339464 0.0
637 1 22.391714737574006 32.99831645537222 0.0
638 1 22.391714737574006 34.1768277573498 0.0
639 1 22.391714737574006 35.35533905932738 0.0
640 1 22.391714737574006 36.53385036130496 0.0
641 1 23.570226039551585 0.0 0.0
642 1 23.570226039551585 1.1785113019775793 0.0
643 1 23.570226039551585 2.3570226039551585 0.0
644 1 23.570226039551585 3.5355339059327378 0.0
645 1 23.570226039551585 4.714045207910317 0.0
646 1 23.570226039551585 5.892556509887896 0.0
647 1 23.570226039551585 7.0710678118654755 0.0
648 1 23.570226039551585 8.249579113843055 0.0
649 1 23.570226039551585 9.428090415820634 0.0
650 1 23.570226039551585 10.606601717798213 0.0
651 1 23.570226039551585 11.785113019775793 0.0